----- GAMESS execution script 'rungms' -----
This job is running on host chemcompute-node-0.novalocal
under operating system Linux at Sun Nov 14 19:51:43 UTC 2021
SLURM has assigned the following compute nodes to this run:
chemcompute-node-0
Available scratch disk space (Kbyte units) at beginning of the job is
Filesystem     1K-blocks     Used Available Use% Mounted on
/dev/sda1       62903276 16773956  46129320  27% /
GAMESS temporary binary files will be written to /scratch/306501
GAMESS supplementary output files will be written to /data/slurm/342512
Copying input file 342512.inp to your run's scratch directory...
The generated host list is
chemcompute-node-0.novalocal

 Distributed Data Interface kickoff program.
 Initiating 1 compute processes on 1 nodes to run the following command:
 /data/gamess-2019R1-ddi/gamess.00.x 342512 

          ******************************************************
          *         GAMESS VERSION = 30 JUN 2019 (R1)          *
          *             FROM IOWA STATE UNIVERSITY             *
          * M.W.SCHMIDT, K.K.BALDRIDGE, J.A.BOATZ, S.T.ELBERT, *
          *   M.S.GORDON, J.H.JENSEN, S.KOSEKI, N.MATSUNAGA,   *
          *          K.A.NGUYEN, S.J.SU, T.L.WINDUS,           *
          *       TOGETHER WITH M.DUPUIS, J.A.MONTGOMERY       *
          *         J.COMPUT.CHEM.  14, 1347-1363(1993)        *
          **************** 64 BIT LINUX VERSION ****************

  SINCE 1993, STUDENTS AND POSTDOCS WORKING AT IOWA STATE UNIVERSITY
  AND ALSO IN THEIR VARIOUS JOBS AFTER LEAVING ISU HAVE MADE IMPORTANT
  CONTRIBUTIONS TO THE CODE:
     IVANA ADAMOVIC, CHRISTINE AIKENS, YURI ALEXEEV, POOJA ARORA,
     ANDREY ASADCHEV, ROB BELL, PRADIPTA BANDYOPADHYAY, JONATHAN BENTZ,
     COLLEEN BERTONI, BRETT BODE, KURT BRORSEN, CALEB CARLIN, GALINA CHABAN,
     WEI CHEN, CHEOL HO CHOI, PAUL DAY, ALBERT DEFUSCO, NUWAN DESILVA,
     TIM DUDLEY, DMITRI FEDOROV, ALEX FINDLATER, GRAHAM FLETCHER, 
     MARK FREITAG, KURT GLAESEMANN, ANASTASIA GUNINA,
     DAN KEMP, GRANT MERRILL, NORIYUKI MINEZAWA, JONATHAN MULLIN,
     TAKESHI NAGATA, SEAN NEDD, HEATHER NETZLOFF, BOSILJKA NJEGIC, RYAN OLSON,
     MIKE PAK, BUU PHAM,
     SPENCER PRUITT, LUKE ROSKOP, JIM SHOEMAKER, LYUDMILA SLIPCHENKO,
     TONY SMITH, SAROM SOK LEANG, JIE SONG, TETSUYA TAKETSUGU, SIMON WEBB,
     PENG XU, SOOHAENG YOO, FEDERICO ZAHARIEV

  ADDITIONAL CODE HAS BEEN PROVIDED BY COLLABORATORS IN OTHER GROUPS:
     IOWA STATE UNIVERSITY:
          JOE IVANIC, AARON WEST, LAIMUTIS BYTAUTAS, KLAUS RUEDENBERG
     UNIVERSITY OF TOKYO: KIMIHIKO HIRAO, TAKAHITO NAKAJIMA,
          TAKAO TSUNEDA, MUNEAKI KAMIYA, SUSUMU YANAGISAWA,
          KIYOSHI YAGI, MAHITO CHIBA, SEIKEN TOKURA, NAOAKI KAWAKAMI
     UNIVERSITY OF AARHUS: FRANK JENSEN
     UNIVERSITY OF IOWA: VISVALDAS KAIRYS, HUI LI
     NATIONAL INST. OF STANDARDS AND TECHNOLOGY: WALT STEVENS, DAVID GARMER
     UNIVERSITY OF PISA: BENEDETTA MENNUCCI, JACOPO TOMASI
     UNIVERSITY OF MEMPHIS: HENRY KURTZ, PRAKASHAN KORAMBATH
     UNIVERSITY OF ALBERTA: TOBY ZENG, MARIUSZ KLOBUKOWSKI
     UNIVERSITY OF NEW ENGLAND: MARK SPACKMAN
     MIE UNIVERSITY: HIROAKI UMEDA
     NAT. INST. OF ADVANCED INDUSTRIAL SCIENCE AND TECHNOLOGY: KAZUO KITAURA
     MICHIGAN STATE UNIVERSITY:
          KAROL KOWALSKI, MARTA WLOCH, JEFFREY GOUR, JESSE LUTZ,
          WEI LI, JUN SHEN, J. EMILIANO DEUSTUA, PIOTR PIECUCH
     UNIVERSITY OF MINNESOTA:
          YINAN SHU
     UNIVERSITY OF SILESIA: MONIKA MUSIAL, STANISLAW KUCHARSKI
     FACULTES UNIVERSITAIRES NOTRE-DAME DE LA PAIX:
          OLIVIER QUINET, BENOIT CHAMPAGNE
     UNIVERSITY OF CALIFORNIA - SANTA BARBARA: BERNARD KIRTMAN
     INSTITUTE FOR MOLECULAR SCIENCE:
          KAZUYA ISHIMURA, MICHIO KATOUDA, AND SHIGERU NAGASE
     UNIVERSITY OF NOTRE DAME: ANNA POMOGAEVA, DAN CHIPMAN
     KYUSHU UNIVERSITY:
          HARUYUKI NAKANO,
          FENG LONG GU, JACEK KORCHOWIEC, MARCIN MAKOWSKI, AND YURIKO AOKI,
          HIROTOSHI MORI AND EISAKU MIYOSHI
     PENNSYLVANIA STATE UNIVERSITY:
          TZVETELIN IORDANOV, CHET SWALINA, JONATHAN SKONE,
          SHARON HAMMES-SCHIFFER
     WASEDA UNIVERSITY:
          MASATO KOBAYASHI, TOMOKO AKAMA, TSUGUKI TOUMA,
          TAKESHI YOSHIKAWA, YASUHIRO IKABATA, JUNJI SEINO,
          YUYA NAKAJIMA, HIROMI NAKAI
     NANJING UNIVERSITY: SHUHUA LI
     UNIVERSITY OF NEBRASKA:
          PEIFENG SU, DEJUN SI, NANDUN THELLAMUREGE, YALI WANG, HUI LI
     UNIVERSITY OF ZURICH: ROBERTO PEVERATI, KIM BALDRIDGE
     N. COPERNICUS UNIVERSITY AND JACKSON STATE UNIVERSITY:
          MARIA BARYSZ
     UNIVERSITY OF COPENHAGEN: Jimmy Kromann, CASPER STEINMANN
     TOKYO INSTITUTE OF TECHNOLOGY: HIROYA NAKATA
     NAGOYA UNIVERSITY: YOSHIO NISHIMOTO, STEPHAN IRLE
     MOSCOW STATE UNIVERSITY: VLADIMIR MIRONOV
     A.N.NESMEYANOV INSTITUTE OF ORGANOELEMENT COMPOUNDS OF RUSSIAN ACADEMY OF SCIENCES:
          IGOR S. GERASIMOV

 EXECUTION OF GAMESS BEGUN Sun Nov 14 19:51:44 2021

            ECHO OF THE FIRST FEW INPUT CARDS -
 INPUT CARD>!File created by the GAMESS Input Deck Generator Plugin for Avogadro            
 INPUT CARD> $BASIS GBASIS=STO NGAUSS=3 $END                                                
 INPUT CARD> $CONTRL SCFTYP=RHF RUNTYP=SADPOINT NZVAR=1 mult=1  ICHARG=0 $END               
 INPUT CARD> $STATPT hssend=.t. OPTTOL=0.0005 NSTEP=50 $END                                 
 INPUT CARD> $STATPT HESS=calc ihrep=5 $END                                                 
 INPUT CARD> $FORCE nvib=2 $END                                                             
 INPUT CARD> $ZMAT DLC=.t. auto=.t. nonvdw(1)=2,14,2,1,1,14,15,1 $END                       
 INPUT CARD>!$ZMAT IFZMAT(1)=1,2,14,1,14,15 fvalue(1)=1.91,3.00 $END                        
 INPUT CARD>                                                                                
 INPUT CARD> $DATA                                                                          
 INPUT CARD>Title                                                                           
 INPUT CARD>C1                                                                              
 INPUT CARD>C     6.0     0.88684136    -1.07654440    -0.64042282                          
 INPUT CARD>C     6.0     0.92032290     0.07352926     0.18376967                          
 INPUT CARD>C     6.0    -0.52906734     0.29472989     0.68226701                          
 INPUT CARD>C     6.0    -1.40301859    -0.32485604    -0.43827859                          
 INPUT CARD>C     6.0    -0.51603281    -1.42381668    -1.08491361                          
 INPUT CARD>H     1.0     1.77100849    -1.61935067    -0.96663088                          
 INPUT CARD>H     1.0     1.70259881     0.14247259     0.93674117                          
 INPUT CARD>H     1.0    -0.75158358     1.34516966     0.85320073                          
 INPUT CARD>H     1.0    -0.66092473    -0.24144155     1.62068534                          
 INPUT CARD>H     1.0    -1.64973271     0.43278760    -1.17783856                          
 INPUT CARD>H     1.0    -2.33193684    -0.73175007    -0.04954188                          
 INPUT CARD>H     1.0    -0.61138588    -1.46446097    -2.17118168                          
 INPUT CARD>H     1.0    -0.76496297    -2.41847897    -0.70571280                          
 INPUT CARD>Br    35.0     1.38277030     1.36281621    -1.14738834                         
 INPUT CARD>Br    35.0     2.03034496     4.02725077    -2.36453104                         
 INPUT CARD> $END                                                                           
    1000000 WORDS OF MEMORY AVAILABLE

     BASIS OPTIONS
     -------------
     GBASIS=STO          IGAUSS=       3      POLAR=NONE    
     NDFUNC=       0     NFFUNC=       0     DIFFSP=       F
     NPFUNC=       0      DIFFS=       F     BASNAM=        


     RUN TITLE
     ---------
 Title                                                                           

 THE POINT GROUP OF THE MOLECULE IS C1      
 THE ORDER OF THE PRINCIPAL AXIS IS     0

 ATOM      ATOMIC                      COORDINATES (BOHR)
           CHARGE         X                   Y                   Z
 C           6.0     1.6758871650       -2.0343739296       -1.2102236461
 C           6.0     1.7391581012        0.1389501535        0.3472743212
 C           6.0    -0.9997923017        0.5569587325        1.2892976994
 C           6.0    -2.6513206908       -0.6138889011       -0.8282264414
 C           6.0    -0.9751606116       -2.6906233819       -2.0501894433
 H           1.0     3.3467207680       -3.0601290443       -1.8266674945
 H           1.0     3.2174452179        0.2692341559        1.7701841327
 H           1.0    -1.4202870231        2.5420020644        1.6123155922
 H           1.0    -1.2489666382       -0.4562583716        3.0626512049
 H           1.0    -3.1175427749        0.8178499749       -2.2257921362
 H           1.0    -4.4067216483       -1.3828071238       -0.0936205781
 H           1.0    -1.1553517860       -2.7674299530       -4.1029384448
 H           1.0    -1.4455704041       -4.5702625604       -1.3336038180
 BR         35.0     2.6130569710        2.5753492085       -2.1682495641
 BR         35.0     3.8367956350        7.6104004391       -4.4683157551

          INTERNUCLEAR DISTANCES (ANGS.)
          ------------------------------

                1 C          2 C          3 C          4 C          5 C     

   1 C       0.0000000    1.4153034 *  2.3737521 *  2.4185442 *  1.5120271 *
   2 C       1.4153034 *  0.0000000    1.5485998 *  2.4379439 *  2.4320197 *
   3 C       2.3737521 *  1.5485998 *  0.0000000    1.5502580 *  2.4650557 *
   4 C       2.4185442 *  2.4379439 *  1.5502580 *  0.0000000    1.5532531 *
   5 C       1.5120271 *  2.4320197 *  2.4650557 *  1.5532531 *  0.0000000  
   6 H       1.0875669 *  2.2165130 *  3.4165652    3.4683311    2.2984304 *
   7 H       2.1538126 *  1.0879682 *  2.2512826 *  3.4284012    3.3856575  
   8 H       3.2832981    2.2046493 *  1.0872698 *  2.2093601 *  3.3880757  
   9 H       2.8645395 *  2.1596938 *  1.0888045 *  2.1902040 *  2.9562257 *
  10 H       3.0001845    2.9305681 *  2.1759925 *  1.0871250 *  2.1773585 *
  11 H       3.2906772    3.3585864    2.1998963 *  1.0860792 *  2.2019215 *
  12 H       2.1767836 *  3.2027085    3.3531624    2.2199853 *  1.0912023 *
  13 H       2.1292038 *  3.1371121    3.0567363    2.2049701 *  1.0932120 *
  14 BR      2.5403621 *  1.9100000 *  2.8536941 *  3.3334208    3.3726368  
  15 BR      5.5071658    4.8330011    5.4557568    5.8684979    6.1510647  

                6 H          7 H          8 H          9 H         10 H     

   1 C       1.0875669 *  2.1538126 *  3.2832981    2.8645395 *  3.0001845  
   2 C       2.2165130 *  1.0879682 *  2.2046493 *  2.1596938 *  2.9305681 *
   3 C       3.4165652    2.2512826 *  1.0872698 *  1.0888045 *  2.1759925 *
   4 C       3.4683311    3.4284012    2.2093601 *  2.1902040 *  1.0871250 *
   5 C       2.2984304 *  3.3856575    3.3880757    2.9562257 *  2.1773585 *
   6 H       0.0000000    2.5945185 *  4.2969336    3.8088237    3.9946653  
   7 H       2.5945185 *  0.0000000    2.7343135 *  2.4902637 *  3.9741486  
   8 H       4.2969336    2.7343135 *  0.0000000    1.7648192 *  2.4008818 *
   9 H       3.8088237    2.4902637 *  1.7648192 *  0.0000000    3.0436922  
  10 H       3.9946653    3.9741486    2.4008818 *  3.0436922    0.0000000  
  11 H       4.2968648    4.2443489    2.7615315 *  2.4129531 *  1.7591486 *
  12 H       2.6740861 *  4.1947521    4.1304441    3.9845309    2.3800098 *
  13 H       2.6716728 *  3.9172681    4.0737503    3.1878589    3.0224893  
  14 BR      3.0127598    2.4362111 *  2.9254289 *  3.7963883    3.1720585  
  15 BR      5.8228419    5.1085533    5.0285667    6.4301335    5.2793348  

               11 H         12 H         13 H         14 BR        15 BR    

   1 C       3.2906772    2.1767836 *  2.1292038 *  2.5403621 *  5.5071658  
   2 C       3.3585864    3.2027085    3.1371121    1.9100000 *  4.8330011  
   3 C       2.1998963 *  3.3531624    3.0567363    2.8536941 *  5.4557568  
   4 C       1.0860792 *  2.2199853 *  2.2049701 *  3.3334208    5.8684979  
   5 C       2.2019215 *  1.0912023 *  1.0932120 *  3.3726368    6.1510647  
   6 H       4.2968648    2.6740861 *  2.6716728 *  3.0127598    5.8228419  
   7 H       4.2443489    4.1947521    3.9172681    2.4362111 *  5.1085533  
   8 H       2.7615315 *  4.1304441    4.0737503    2.9254289 *  5.0285667  
   9 H       2.4129531 *  3.9845309    3.1878589    3.7963883    6.4301335  
  10 H       1.7591486 *  2.3800098 *  3.0224893    3.1720585    5.2793348  
  11 H       0.0000000    2.8281648 *  2.3939553 *  4.4035808    6.8583355  
  12 H       2.8281648 *  0.0000000    1.7553733 *  3.6080892    6.0971324  
  13 H       2.3939553 *  1.7553733 *  0.0000000    4.3710444    7.2189235  
  14 BR      4.4035808    3.6080892    4.3710444    0.0000000    3.0000001  
  15 BR      6.8583355    6.0971324    7.2189235    3.0000001    0.0000000  

  * ... LESS THAN  3.000


     ATOMIC BASIS SET
     ----------------
 THE CONTRACTED PRIMITIVE FUNCTIONS HAVE BEEN UNNORMALIZED
 THE CONTRACTED BASIS FUNCTIONS ARE NOW NORMALIZED TO UNITY

  SHELL TYPE  PRIMITIVE        EXPONENT          CONTRACTION COEFFICIENT(S)

 C         

      1   S       1            71.6168373    0.154328967295
      1   S       2            13.0450963    0.535328142282
      1   S       3             3.5305122    0.444634542185

      2   L       4             2.9412494   -0.099967229187    0.155916274999
      2   L       5             0.6834831    0.399512826089    0.607683718598
      2   L       6             0.2222899    0.700115468880    0.391957393099

 C         

      3   S       7            71.6168373    0.154328967295
      3   S       8            13.0450963    0.535328142282
      3   S       9             3.5305122    0.444634542185

      4   L      10             2.9412494   -0.099967229187    0.155916274999
      4   L      11             0.6834831    0.399512826089    0.607683718598
      4   L      12             0.2222899    0.700115468880    0.391957393099

 C         

      5   S      13            71.6168373    0.154328967295
      5   S      14            13.0450963    0.535328142282
      5   S      15             3.5305122    0.444634542185

      6   L      16             2.9412494   -0.099967229187    0.155916274999
      6   L      17             0.6834831    0.399512826089    0.607683718598
      6   L      18             0.2222899    0.700115468880    0.391957393099

 C         

      7   S      19            71.6168373    0.154328967295
      7   S      20            13.0450963    0.535328142282
      7   S      21             3.5305122    0.444634542185

      8   L      22             2.9412494   -0.099967229187    0.155916274999
      8   L      23             0.6834831    0.399512826089    0.607683718598
      8   L      24             0.2222899    0.700115468880    0.391957393099

 C         

      9   S      25            71.6168373    0.154328967295
      9   S      26            13.0450963    0.535328142282
      9   S      27             3.5305122    0.444634542185

     10   L      28             2.9412494   -0.099967229187    0.155916274999
     10   L      29             0.6834831    0.399512826089    0.607683718598
     10   L      30             0.2222899    0.700115468880    0.391957393099

 H         

     11   S      31             3.4252509    0.154328967295
     11   S      32             0.6239137    0.535328142282
     11   S      33             0.1688554    0.444634542185

 H         

     12   S      34             3.4252509    0.154328967295
     12   S      35             0.6239137    0.535328142282
     12   S      36             0.1688554    0.444634542185

 H         

     13   S      37             3.4252509    0.154328967295
     13   S      38             0.6239137    0.535328142282
     13   S      39             0.1688554    0.444634542185

 H         

     14   S      40             3.4252509    0.154328967295
     14   S      41             0.6239137    0.535328142282
     14   S      42             0.1688554    0.444634542185

 H         

     15   S      43             3.4252509    0.154328967295
     15   S      44             0.6239137    0.535328142282
     15   S      45             0.1688554    0.444634542185

 H         

     16   S      46             3.4252509    0.154328967295
     16   S      47             0.6239137    0.535328142282
     16   S      48             0.1688554    0.444634542185

 H         

     17   S      49             3.4252509    0.154328967295
     17   S      50             0.6239137    0.535328142282
     17   S      51             0.1688554    0.444634542185

 H         

     18   S      52             3.4252509    0.154328967295
     18   S      53             0.6239137    0.535328142282
     18   S      54             0.1688554    0.444634542185

 BR        

     19   S      55          2629.9974710    0.154328967295
     19   S      56           479.0573224    0.535328142282
     19   S      57           129.6516070    0.444634542185

     20   L      58           219.8350255   -0.099967229187    0.155916274999
     20   L      59            51.0849322    0.399512826089    0.607683718598
     20   L      60            16.6144055    0.700115468880    0.391957393099

     21   L      61            20.6524416   -0.219620369005    0.010587604289
     21   L      62             5.7619788    0.225595433605    0.595167005266
     21   L      63             2.2551994    0.900398426019    0.462001011973

     22   D      64            22.3657496    0.168659606013
     22   D      65             7.0128139    0.584798481745
     22   D      66             2.7316638    0.405677952331

     23   L      67             1.3960375   -0.308844121382   -0.121546859998
     23   L      68             0.5152256    0.019606411652    0.571522760389
     23   L      69             0.2275291    1.131034441567    0.549894947089

 BR        

     24   S      70          2629.9974710    0.154328967295
     24   S      71           479.0573224    0.535328142282
     24   S      72           129.6516070    0.444634542185

     25   L      73           219.8350255   -0.099967229187    0.155916274999
     25   L      74            51.0849322    0.399512826089    0.607683718598
     25   L      75            16.6144055    0.700115468880    0.391957393099

     26   L      76            20.6524416   -0.219620369005    0.010587604289
     26   L      77             5.7619788    0.225595433605    0.595167005266
     26   L      78             2.2551994    0.900398426019    0.462001011973

     27   D      79            22.3657496    0.168659606013
     27   D      80             7.0128139    0.584798481745
     27   D      81             2.7316638    0.405677952331

     28   L      82             1.3960375   -0.308844121382   -0.121546859998
     28   L      83             0.5152256    0.019606411652    0.571522760389
     28   L      84             0.2275291    1.131034441567    0.549894947089

 TOTAL NUMBER OF BASIS SET SHELLS             =   28
 NUMBER OF CARTESIAN GAUSSIAN BASIS FUNCTIONS =   71
 NUMBER OF ELECTRONS                          =  108
 CHARGE OF MOLECULE                           =    0
 SPIN MULTIPLICITY                            =    1
 NUMBER OF OCCUPIED ORBITALS (ALPHA)          =   54
 NUMBER OF OCCUPIED ORBITALS (BETA )          =   54
 TOTAL NUMBER OF ATOMS                        =   15
 THE NUCLEAR REPULSION ENERGY IS      762.9272235359

     $CONTRL OPTIONS
     ---------------
 SCFTYP=RHF          RUNTYP=SADPOINT     EXETYP=RUN     
 MPLEVL=       0     CITYP =NONE         CCTYP =NONE         VBTYP =NONE    
 DFTTYP=NONE         TDDFT =NONE    
 MULT  =       1     ICHARG=       0     NZVAR =       1     COORD =UNIQUE  
 PP    =NONE         RELWFN=NONE         LOCAL =NONE         NUMGRD=       F
 ISPHER=      -1     NOSYM =       0     MAXIT =      30     UNITS =ANGS    
 PLTORB=       F     MOLPLT=       F     AIMPAC=       F     FRIEND=        
 NPRINT=       7     IREST =       0     GEOM  =INPUT   
 NORMF =       0     NORMP =       0     ITOL  =      20     ICUT  =       9
 INTTYP=BEST         GRDTYP=BEST         QMTTOL= 1.0E-06

     $SYSTEM OPTIONS
     ---------------
  REPLICATED MEMORY=     1000000 WORDS (ON EVERY NODE).
 DISTRIBUTED MEMDDI=           0 MILLION WORDS IN AGGREGATE,
 MEMDDI DISTRIBUTED OVER   1 PROCESSORS IS           0 WORDS/PROCESSOR.
 TOTAL MEMORY REQUESTED ON EACH PROCESSOR=     1000000 WORDS.
 TIMLIM=      525600.00 MINUTES, OR     365.0 DAYS.
 PARALL= F  BALTYP=  DLB     KDIAG=    0  COREFL= F
 MXSEQ2=     300 MXSEQ3=     150  mem10=         0

          ----------------
          PROPERTIES INPUT
          ----------------

     MOMENTS            FIELD           POTENTIAL          DENSITY
 IEMOM =       1   IEFLD =       0   IEPOT =       0   IEDEN =       0
 WHERE =COMASS     WHERE =NUCLEI     WHERE =NUCLEI     WHERE =NUCLEI  
 OUTPUT=BOTH       OUTPUT=BOTH       OUTPUT=BOTH       OUTPUT=BOTH    
 IEMINT=       0   IEFINT=       0                     IEDINT=       0
                                                       MORB  =       0
          EXTRAPOLATION IN EFFECT
          SOSCF IN EFFECT
 ORBITAL PRINTING OPTION: NPREO=     1    71     2     1

     -------------------------------
     INTEGRAL TRANSFORMATION OPTIONS
     -------------------------------
     NWORD  =            0
     CUTOFF = 1.0E-09     MPTRAN =       0
     DIRTRF =       F     AOINTS =DUP     

          ----------------------
          INTEGRAL INPUT OPTIONS
          ----------------------
 NOPK  =       1 NORDER=       0 SCHWRZ=       T


 -----------------------------------------------
  STATISTICS ON AUTOMATIC COORDINATE GENERATION 
 -----------------------------------------------
  NUMBER OF USER SPECIFIED BONDS                             4
  NUMBER OF BONDS                                           18
  NUMBER OF ANGLES                                          47
  NUMBER OF TORSIONS                                        55
  NUMBER OF EXTRA COORD.                                     0
  NUMBER OF EXTRA COORD. FOR CONSTRAINTS                     0
  NUMBER OF CONSTRAINED COORD.                               0

  TOTAL NUMBER OF PRIMITIVES                               120
 -----------------------------------------------

   --- ENCODED Z MATRIX ---
 COORD  TYPE   I   J   K   L   M   N
    1      1    1   2
    2      1    1   5
    3      1    1  14
    4      1    1   2
    5      1    1  15
    6      1    1   6
    7      1    2   7
    8      1    2   3
    9      1    2  14
   10      1    2  14
   11      1    3   4
   12      1    3   9
   13      1    3   8
   14      1    4  11
   15      1    4  10
   16      1    4   5
   17      1    5  13
   18      1    5  12
   19      2    1   2   3
   20      2    1   2  14
   21      2    1   2  14
   22      2    1   2   7
   23      2    1   2  14
   24      2    1   2   7
   25      2    1   2  14
   26      2    1   5  12
   27      2    1   5  13
   28      2    1  14   2
   29      2    1  14   2
   30      2    1   2   3
   31      2    1   5   4
   32      2    2   1  15
   33      2    2   1   6
   34      2    2   1   5
   35      2    2   1   5
   36      2    2   1  15
   37      2    2   3   4
   38      2    2   1  14
   39      2    2   1  14
   40      2    2   3   9
   41      2    2   1   6
   42      2    2   3   8
   43      2    3   2  14
   44      2    3   2   7
   45      2    3   4  10
   46      2    3   4   5
   47      2    3   4  11
   48      2    3   2  14
   49      2    4   5  13
   50      2    4   5  12
   51      2    4   3   8
   52      2    4   3   9
   53      2    5   1   6
   54      2    5   1  15
   55      2    5   4  10
   56      2    5   4  11
   57      2    5   1  14
   58      2    6   1  15
   59      2    6   1  14
   60      2    7   2  14
   61      2    7   2  14
   62      2    8   3   9
   63      2   10   4  11
   64      2   12   5  13
   65      2   14   1  15
   66      3    1   5   4  10
   67      3    1   5   4  11
   68      3    1   5   4   3
   69      3    1   2   3   8
   70      3    1   2   3   9
   71      3    1  14   2   3
   72      3    1  14   2   7
   73      3    1   2   3   4
   74      3    2   1   5  12
   75      3    2   1   5   4
   76      3    2   3   4   5
   77      3    2   3   4  10
   78      3    2   3   4  11
   79      3    2  14   1   6
   80      3    2  14   1  15
   81      3    2  14   1   5
   82      3    2   1   5  13
   83      3    3   2   1  15
   84      3    3   2   1   6
   85      3    3   2   1   5
   86      3    3   2   1  14
   87      3    3   4   5  12
   88      3    3   4   5  13
   89      3    4   5   1   6
   90      3    4   5   1  15
   91      3    4   5   1  14
   92      3    4   3   2  14
   93      3    4   3   2   7
   94      3    5   4   3   9
   95      3    5   1   2   7
   96      3    5   1   2  14
   97      3    5   4   3   8
   98      3    6   1   2  14
   99      3    6   1   5  13
  100      3    6   1   2   7
  101      3    6   1   5  12
  102      3    7   2   1  14
  103      3    7   2   3   8
  104      3    7   2   3   9
  105      3    7   2   1  15
  106      3    8   3   4  10
  107      3    8   3   2  14
  108      3    8   3   4  11
  109      3    9   3   4  10
  110      3    9   3   2  14
  111      3    9   3   4  11
  112      3   10   4   5  12
  113      3   10   4   5  13
  114      3   11   4   5  12
  115      3   11   4   5  13
  116      3   12   5   1  15
  117      3   12   5   1  14
  118      3   13   5   1  15
  119      3   13   5   1  14
  120      3   14   2   1  15

          INDEP./SYM. INTERNAL COORDINATES
          --------------------------------
 CRD  1=  -0.3845 ( 32) -0.3845 ( 36)  0.1600 ( 54)  0.1601 ( 58) -0.3932 ( 65)
           0.3806 ( 90)  0.3168 (116)  0.3208 (118)
 CRD  2=   0.2384 (  8) -0.1627 ( 19) -0.1489 ( 27) -0.1627 ( 30)  0.1626 ( 31)
           0.1943 ( 37) -0.1433 ( 40)  0.2056 ( 43) -0.1688 ( 46)  0.2056 ( 48)
          -0.1011 ( 52)  0.2259 ( 54)  0.1949 ( 57) -0.1176 ( 58) -0.1045 ( 60)
          -0.1045 ( 61)  0.1362 ( 66)  0.1190 ( 67)  0.1156 ( 71) -0.1197 ( 77)
          -0.1475 ( 78)  0.1771 ( 80) -0.1231 ( 81)  0.2015 ( 83)  0.1760 ( 86)
          -0.1286 ( 89) -0.1003 ( 90)  0.1159 ( 93) -0.1484 ( 95) -0.2433 ( 96)
          -0.1391 ( 98)  0.1204 (105)
 CRD  3=  -0.1207 (  1)  0.3173 (  2) -0.1207 (  4) -0.3775 (  8) -0.1030 ( 12)
          -0.1701 ( 13)  0.1090 ( 14)  0.1170 ( 15)  0.2181 ( 16)  0.3503 ( 37)
          -0.1494 ( 40) -0.2289 ( 42) -0.3125 ( 46)  0.1336 ( 53)  0.1293 ( 55)
           0.1837 ( 56)  0.1579 ( 62) -0.1346 ( 63)
 CRD  4=   0.1178 (  1)  0.4342 (  2)  0.1178 (  4) -0.2859 (  8) -0.1431 ( 11)
          -0.1063 ( 14) -0.1113 ( 15) -0.1091 ( 16)  0.1107 ( 17)  0.1642 ( 18)
           0.2549 ( 26)  0.1569 ( 27) -0.3327 ( 31)  0.2950 ( 46) -0.1503 ( 47)
           0.1279 ( 63) -0.1595 ( 64)
 CRD  5=  -0.6854 ( 11) -0.1543 ( 13) -0.1182 ( 14) -0.1741 ( 16) -0.1129 ( 18)
          -0.1319 ( 34) -0.1319 ( 35)  0.1108 ( 42) -0.1340 ( 45) -0.2296 ( 51)
           0.1091 ( 53)  0.1031 ( 55)  0.1040 ( 69) -0.1041 ( 81)  0.1131 (103)
          -0.1269 (110)
 CRD  6=   0.1333 (  6)  0.2252 (  8) -0.1550 ( 11)  0.1005 ( 13)  0.6740 ( 16)
           0.1504 ( 18)  0.1036 ( 19)  0.1036 ( 30) -0.1059 ( 31) -0.1190 ( 45)
          -0.1552 ( 47)  0.1122 ( 49)  0.1481 ( 50)  0.1028 ( 55)  0.1640 ( 56)
          -0.1026 ( 71) -0.1317 ( 77)  0.1439 (108) -0.1586 (109) -0.1189 (113)
           0.1203 (114)
 CRD  7=  -0.1160 ( 11)  0.1223 ( 26) -0.1669 ( 27)  0.2507 ( 40) -0.1333 ( 42)
           0.1013 ( 44)  0.2436 ( 45) -0.2560 ( 47)  0.1608 ( 49) -0.1583 ( 50)
           0.1493 ( 51) -0.2557 ( 52) -0.2529 ( 55)  0.2258 ( 56)  0.1136 ( 73)
           0.1431 ( 75)  0.1386 ( 77)  0.1169 ( 78) -0.1118 ( 84) -0.1695 ( 85)
          -0.1549 ( 87) -0.1886 ( 88)  0.1466 ( 91)  0.1163 ( 92)  0.1167 ( 93)
          -0.1931 ( 94) -0.1132 ( 97)
 CRD  8=  -0.5025 (  2) -0.3008 (  6) -0.2487 (  7) -0.4824 (  8) -0.1084 ( 11)
          -0.1196 ( 27) -0.1055 ( 44)  0.1248 ( 50) -0.1444 ( 53) -0.1123 ( 88)
          -0.1210 (113)  0.1149 (114)
 CRD  9=   0.1303 (  1)  0.1303 (  4) -0.2277 (  5)  0.2818 (  6) -0.1146 (  8)
           0.1275 ( 13) -0.2882 ( 17)  0.1240 ( 19)  0.1740 ( 26) -0.2279 ( 27)
           0.1240 ( 30)  0.1187 ( 31) -0.1606 ( 34) -0.1606 ( 35) -0.1616 ( 40)
          -0.1580 ( 44) -0.1798 ( 50)  0.1220 ( 52)  0.1106 ( 53) -0.1221 ( 54)
          -0.1261 ( 57)  0.1905 ( 66)  0.1561 ( 67)  0.1365 ( 68)  0.1260 ( 70)
          -0.1042 ( 71) -0.1222 ( 74) -0.1513 ( 76) -0.1205 ( 78) -0.1108 ( 81)
           0.1145 (110)
 CRD 10=   0.1506 (  1)  0.1274 (  3)  0.1506 (  4) -0.1551 (  5) -0.1641 (  6)
           0.4992 (  7) -0.2252 ( 12)  0.1095 ( 15) -0.1292 ( 19) -0.1292 ( 30)
           0.1354 ( 33)  0.1025 ( 34)  0.1025 ( 35) -0.1202 ( 40)  0.1354 ( 41)
           0.1203 ( 42)  0.1455 ( 44)  0.1055 ( 49) -0.1549 ( 51) -0.2397 ( 53)
           0.1047 ( 58)  0.1372 ( 59)  0.1258 ( 69)  0.1518 ( 71) -0.1111 ( 77)
           0.1072 ( 81) -0.1344 ( 83) -0.1222 ( 86)  0.1030 ( 97)
 CRD 11=   0.1164 (  7) -0.1662 ( 12)  0.4154 ( 14) -0.4927 ( 15) -0.1713 ( 26)
           0.1045 ( 27) -0.1669 ( 42) -0.1310 ( 45)  0.1093 ( 47) -0.1099 ( 55)
           0.1049 ( 56)  0.1148 ( 68) -0.1147 ( 76)  0.2491 ( 87)  0.2154 ( 88)
          -0.2057 ( 94) -0.2402 ( 97)
 CRD 12=   0.1140 (  6) -0.1750 (  7) -0.4501 ( 12)  0.3952 ( 13)  0.1853 ( 17)
          -0.1806 ( 18) -0.1389 ( 22) -0.1389 ( 24) -0.1398 ( 45)  0.1561 ( 47)
           0.1454 ( 51) -0.1359 ( 52)  0.1393 ( 55) -0.1951 ( 56) -0.1041 ( 69)
          -0.1060 ( 70) -0.1191 ( 72) -0.1760 ( 77) -0.2049 ( 78)  0.1463 ( 92)
           0.1673 ( 93)
 CRD 13=  -0.1775 (  1) -0.1775 (  4) -0.3877 (  6) -0.1070 ( 12)  0.1128 ( 13)
          -0.1416 ( 15) -0.3503 ( 17)  0.3714 ( 18) -0.1478 ( 22) -0.1478 ( 24)
          -0.1767 ( 33) -0.1767 ( 41)  0.1243 ( 44)  0.1222 ( 53)  0.1256 ( 66)
           0.1392 ( 67) -0.1482 ( 72)  0.1843 ( 79)  0.1064 ( 81) -0.1239 ( 91)
           0.1168 ( 93)  0.1058 (100)
 CRD 14=  -0.1096 (  3) -0.3322 (  6) -0.1494 ( 13)  0.1737 ( 14)  0.2423 ( 17)
          -0.2162 ( 18) -0.1368 ( 33) -0.1368 ( 41)  0.1859 ( 49) -0.1728 ( 50)
          -0.1366 ( 51)  0.1503 ( 52)  0.1313 ( 53) -0.1394 ( 58) -0.1395 ( 59)
           0.1654 ( 69)  0.1731 ( 70) -0.1529 ( 74) -0.1639 ( 82)  0.1379 (103)
           0.1457 (104)  0.1519 (107)  0.1596 (110) -0.1799 (116) -0.1723 (117)
          -0.1910 (118) -0.1833 (119)
 CRD 15=  -0.1583 (  3)  0.7625 (  5) -0.1440 ( 40)  0.1462 ( 42) -0.1153 ( 51)
           0.1399 ( 52)  0.1292 ( 69)  0.1470 ( 70)  0.1325 (103)  0.1504 (104)
           0.1058 (110)
 CRD 16=   0.1640 (  3) -0.3203 (  5) -0.3118 (  7) -0.1221 ( 18)  0.1084 ( 20)
           0.1084 ( 21)  0.1084 ( 23)  0.1084 ( 25) -0.1111 ( 26)  0.1403 ( 27)
          -0.1001 ( 40)  0.1139 ( 42)  0.1143 ( 45) -0.1266 ( 47)  0.1081 ( 50)
          -0.1094 ( 51) -0.1293 ( 55)  0.1128 ( 56)  0.1001 ( 88)  0.1038 ( 92)
           0.1790 (106)  0.1710 (107)  0.1587 (108)  0.1682 (109)  0.1676 (110)
           0.1479 (111)  0.1509 (112)  0.1736 (113)  0.1629 (114)  0.1857 (115)
           0.1365 (117)  0.1347 (119)
 CRD 17=   0.3775 ( 12)  0.3549 ( 13) -0.4721 ( 14) -0.5090 ( 15)  0.1683 ( 17)
           0.1412 ( 62) -0.1803 ( 63) -0.1056 (106)  0.1537 (111)
 CRD 18=   0.4165 ( 12)  0.5082 ( 13)  0.3085 ( 14)  0.2490 ( 15) -0.2879 ( 17)
          -0.3208 ( 18)  0.1777 ( 62)  0.1049 ( 63) -0.1014 (108)  0.1051 (109)
          -0.1038 (112)
 CRD 19=  -0.1201 (  7)  0.1680 ( 12)  0.1742 ( 13)  0.3078 ( 14)  0.1940 ( 15)
          -0.1174 ( 16)  0.4723 ( 17)  0.5684 ( 18)  0.1016 ( 63)  0.1884 ( 64)
          -0.1362 (113)
 CRD 20=  -0.1482 (  3) -0.1409 (  5) -0.1534 (  6)  0.3396 (  7) -0.2138 ( 12)
           0.2000 ( 13)  0.3236 ( 17) -0.1679 ( 18) -0.1134 ( 20) -0.1134 ( 21)
          -0.1134 ( 23) -0.1134 ( 25) -0.1084 ( 26) -0.1288 ( 44)  0.1127 ( 45)
          -0.1142 ( 47)  0.1113 ( 53) -0.1097 ( 55) -0.1157 ( 59)  0.1051 ( 87)
          -0.1030 (100)  0.1019 (106) -0.1574 (107)  0.1221 (109) -0.1363 (110)
           0.1032 (111)  0.1822 (112)  0.1524 (113)  0.1893 (114)  0.1595 (115)
          -0.1017 (117)
 CRD 21=  -0.1042 (  7) -0.1879 ( 12)  0.1504 ( 13)  0.2579 ( 14) -0.2819 ( 15)
           0.1148 ( 26) -0.1283 ( 69) -0.1205 ( 70) -0.1116 ( 73)  0.1209 ( 76)
           0.1626 ( 77)  0.1852 ( 78) -0.1614 ( 87) -0.1297 ( 88) -0.1029 ( 92)
          -0.1017 ( 93)  0.1678 ( 94)  0.2055 ( 97) -0.1184 (103) -0.1106 (104)
           0.2473 (106) -0.1195 (107)  0.2699 (108)  0.2095 (109) -0.1117 (110)
           0.2321 (111) -0.1602 (112) -0.1284 (113) -0.1771 (114) -0.1453 (115)
 CRD 22=   0.2222 (  5) -0.1538 (  6) -0.3189 (  7)  0.1168 ( 17) -0.1208 ( 18)
           0.1541 ( 58)  0.1381 ( 59)  0.1473 ( 66)  0.1407 ( 67)  0.1046 ( 68)
          -0.1771 ( 74) -0.1429 ( 75) -0.1257 ( 80) -0.2036 ( 82)  0.1073 ( 84)
           0.1112 ( 85)  0.1193 ( 88) -0.1455 ( 89)  0.1495 ( 95)  0.1068 ( 96)
           0.1028 ( 98) -0.2062 ( 99)  0.1456 (100) -0.1797 (101) -0.1158 (104)
           0.1270 (112)  0.1620 (113)  0.1203 (114)  0.1554 (115) -0.1049 (116)
          -0.1212 (117) -0.1314 (118) -0.1477 (119)
 CRD 23=  -0.1348 (  2)  0.1745 (  3)  0.4667 (  6)  0.3318 (  7) -0.1185 (  8)
           0.1136 (  9)  0.1136 ( 10)  0.1337 ( 12) -0.1286 ( 13) -0.1011 ( 15)
           0.1215 ( 17) -0.1060 ( 18) -0.1424 ( 22) -0.1424 ( 24)  0.1011 ( 44)
          -0.1341 ( 72)  0.1462 ( 79)  0.2129 ( 80) -0.1133 ( 82)  0.1447 ( 84)
          -0.1317 ( 89)  0.1055 ( 93)  0.1181 ( 98) -0.1714 ( 99)  0.1397 (100)
          -0.1034 (101)  0.1076 (114) -0.1054 (119)
 CRD 24=  -0.3077 (  3)  0.1122 (  5)  0.2302 (  6) -0.3159 (  9) -0.3159 ( 10)
          -0.1653 ( 12)  0.1284 ( 13) -0.1407 ( 14)  0.1376 ( 15) -0.1425 ( 17)
           0.1336 ( 18) -0.1073 ( 33) -0.1073 ( 41)  0.1319 ( 44) -0.1410 ( 58)
          -0.1110 ( 59) -0.1539 ( 60) -0.1539 ( 61)  0.2395 ( 80)  0.1097 ( 89)
          -0.1534 ( 93)  0.1993 ( 95)  0.1824 (102) -0.1128 (103) -0.1385 (104)
           0.2165 (105)
 CRD 25=   0.1125 (  3)  0.1127 (  5) -0.2437 (  6)  0.2521 (  7) -0.1388 (  9)
          -0.1388 ( 10)  0.1026 ( 13) -0.1481 ( 18)  0.1026 ( 20)  0.1026 ( 21)
           0.1026 ( 23)  0.1026 ( 25) -0.1253 ( 47) -0.1325 ( 49)  0.1428 ( 51)
           0.1403 ( 52)  0.1499 ( 53)  0.1013 ( 56) -0.1061 ( 60) -0.1061 ( 61)
          -0.1661 ( 62)  0.1398 ( 64) -0.1440 ( 69)  0.1002 ( 70)  0.1188 ( 79)
           0.1115 ( 82)  0.1118 ( 84)  0.1047 ( 92) -0.1041 ( 93)  0.1098 (100)
          -0.1360 (101) -0.2212 (103)  0.2318 (110) -0.1210 (113)  0.1591 (118)
           0.2202 (119)
 CRD 26=  -0.1294 (  2) -0.2590 (  3) -0.1347 (  8) -0.2801 (  9) -0.2801 ( 10)
           0.2157 ( 12) -0.2173 ( 13)  0.3115 ( 14) -0.2523 ( 15)  0.2086 ( 17)
          -0.1543 ( 18)  0.1257 ( 26)  0.1642 ( 42)  0.1203 ( 45) -0.1135 ( 52)
          -0.1062 ( 56)  0.1881 ( 66) -0.1213 ( 70) -0.1373 ( 77) -0.1389 ( 78)
          -0.1179 ( 87)  0.1411 ( 97) -0.1370 (104) -0.1531 (110)  0.1545 (113)
 CRD 27=  -0.1713 (  2) -0.1270 (  6)  0.1092 (  7)  0.1619 (  8) -0.3457 ( 11)
          -0.1075 ( 13)  0.3487 ( 16)  0.1398 ( 18)  0.1385 ( 27) -0.1217 ( 40)
           0.1800 ( 45)  0.1996 ( 47) -0.2014 ( 55) -0.1629 ( 56)  0.1155 ( 62)
          -0.1056 ( 64) -0.1685 ( 67)  0.1296 ( 77) -0.1051 ( 78)  0.1024 ( 80)
           0.1322 ( 88)  0.1118 ( 94) -0.1809 (108)  0.2597 (109)  0.2414 (113)
          -0.2257 (114)
 CRD 28=   0.2294 (  2) -0.1546 (  3)  0.2449 (  8) -0.1299 (  9) -0.1299 ( 10)
          -0.1335 ( 13) -0.1165 ( 14) -0.1623 ( 15) -0.1052 ( 26) -0.1549 ( 27)
          -0.1923 ( 40) -0.1046 ( 42)  0.1358 ( 50)  0.1306 ( 51) -0.1015 ( 56)
           0.2472 ( 63)  0.1082 ( 67) -0.1002 ( 69)  0.1048 ( 74) -0.1578 ( 78)
          -0.3494 ( 80) -0.1287 ( 88)  0.1463 ( 94)  0.1047 (101) -0.1130 (103)
          -0.1249 (107) -0.1937 (108)  0.2634 (109) -0.2075 (113)  0.1536 (114)
           0.1143 (116)  0.1096 (117)
 CRD 29=   0.1395 (  3)  0.1211 ( 22)  0.1211 ( 24) -0.1913 ( 26) -0.1557 ( 27)
          -0.1519 ( 33)  0.1479 ( 40) -0.1519 ( 41)  0.1571 ( 42) -0.1471 ( 44)
           0.1530 ( 47)  0.1119 ( 49)  0.1568 ( 50) -0.1766 ( 51) -0.1315 ( 52)
           0.1915 ( 53) -0.1235 ( 55) -0.1378 ( 56) -0.1038 ( 67)  0.1190 ( 69)
           0.1449 ( 72)  0.1013 ( 77)  0.1655 ( 79)  0.1651 ( 87) -0.1270 ( 88)
          -0.1106 ( 94)  0.1009 ( 97) -0.1120 ( 99) -0.1639 (104)  0.1986 (106)
           0.1866 (107) -0.1858 (111)  0.2075 (112) -0.2412 (115)  0.1215 (117)
 CRD 30=   0.2922 (  1)  0.1194 (  3)  0.2922 (  4)  0.1085 (  5) -0.1054 (  6)
           0.2585 ( 11) -0.2354 ( 13) -0.1054 ( 14)  0.1535 ( 16) -0.1319 ( 17)
          -0.1046 ( 18) -0.1094 ( 45) -0.1002 ( 50) -0.1226 ( 52)  0.2355 ( 62)
           0.1970 ( 64) -0.1490 ( 70) -0.1010 ( 72) -0.1159 ( 74)  0.1233 ( 82)
           0.1368 ( 94)  0.1215 ( 99) -0.1177 (101)  0.1387 (103) -0.1067 (104)
           0.1683 (109) -0.1913 (110)  0.1738 (111) -0.1368 (113)  0.1060 (114)
          -0.1178 (116) -0.1102 (117)  0.1213 (118)  0.1290 (119)
 CRD 31=  -0.2361 (  2)  0.1619 (  6)  0.1215 ( 15) -0.1402 ( 33) -0.1402 ( 41)
           0.1199 ( 57) -0.1347 ( 59) -0.1474 ( 63)  0.1005 ( 78) -0.7144 ( 80)
          -0.1051 ( 96)  0.1148 (108)  0.1549 (111) -0.1039 (120)
 CRD 32=   0.2906 ( 12) -0.1213 ( 13) -0.2141 ( 17)  0.1931 ( 18) -0.1194 ( 26)
           0.1450 ( 42) -0.1032 ( 45)  0.1211 ( 49) -0.1009 ( 50)  0.1103 ( 51)
          -0.1198 ( 52) -0.1382 ( 62) -0.1881 ( 69) -0.1159 ( 74)  0.1193 ( 80)
          -0.1221 ( 82) -0.1298 ( 84)  0.1905 ( 87)  0.1520 ( 88)  0.1058 ( 89)
           0.1009 ( 90)  0.1085 ( 91)  0.1051 ( 92)  0.1063 ( 93)  0.2347 ( 97)
          -0.1401 (100) -0.1385 (103)  0.2156 (106) -0.1398 (107)  0.2152 (108)
           0.1547 (114)  0.1162 (115)
 CRD 33=  -0.2260 (  2)  0.2493 ( 11) -0.2404 ( 14)  0.1367 ( 16)  0.1123 ( 27)
           0.1099 ( 31) -0.1022 ( 45) -0.1945 ( 46) -0.1016 ( 51)  0.2324 ( 63)
          -0.1149 ( 64) -0.2050 ( 66)  0.1059 ( 67)  0.1646 ( 77) -0.1689 ( 80)
           0.1977 ( 88) -0.1394 ( 94)  0.2295 (106)  0.1013 (107) -0.1516 (111)
          -0.3448 (112)  0.2534 (115)
 CRD 34=  -0.1851 (  3) -0.1440 (  5)  0.1252 (  8) -0.2030 (  9) -0.2030 ( 10)
          -0.1300 ( 13)  0.2145 ( 15) -0.2188 ( 16) -0.1036 ( 37) -0.1180 ( 44)
          -0.1146 ( 45)  0.1077 ( 50) -0.1003 ( 52)  0.1455 ( 56)  0.1012 ( 58)
           0.1188 ( 59)  0.1216 ( 62) -0.1294 ( 63) -0.1236 ( 67) -0.1095 ( 70)
           0.1717 ( 78)  0.1042 ( 80)  0.1476 ( 84) -0.1858 ( 89)  0.1111 ( 92)
           0.1427 ( 93) -0.1194 ( 95) -0.1129 ( 97)  0.1081 ( 98) -0.1851 ( 99)
           0.1231 (103)  0.1421 (108)  0.2772 (111) -0.1585 (114) -0.1120 (115)
           0.1124 (117)
 CRD 35=   0.1014 (  2) -0.1446 (  3) -0.1060 (  5) -0.1672 (  8) -0.1090 (  9)
          -0.1090 ( 10) -0.1638 ( 11)  0.1279 ( 13) -0.1152 ( 14)  0.1235 ( 15)
           0.2119 ( 16) -0.1660 ( 18) -0.1122 ( 22) -0.1122 ( 24) -0.1077 ( 31)
           0.1372 ( 37)  0.1616 ( 47) -0.1253 ( 49) -0.1118 ( 53) -0.1526 ( 55)
          -0.1555 ( 62)  0.1615 ( 64) -0.1248 ( 72)  0.1490 ( 77)  0.1320 ( 82)
           0.1050 ( 87) -0.1345 ( 89)  0.1294 ( 93) -0.1830 ( 94) -0.1536 (101)
           0.2172 (104)  0.2075 (106) -0.1164 (107)  0.1068 (108) -0.1039 (111)
          -0.1050 (113) -0.2210 (115) -0.1124 (116) -0.1127 (117)  0.1085 (118)
           0.1081 (119)
 CRD 36=   0.3600 (  1) -0.1143 (  2)  0.3600 (  4) -0.1260 (  6) -0.1163 (  7)
          -0.1314 ( 16)  0.1136 ( 17)  0.1539 ( 31) -0.1127 ( 34) -0.1127 ( 35)
           0.1109 ( 37)  0.1332 ( 44)  0.1914 ( 53) -0.1653 ( 64)  0.1098 ( 70)
           0.1184 ( 71)  0.1636 ( 74) -0.1002 ( 81) -0.1349 ( 99)  0.1153 (101)
           0.1858 (104) -0.1580 (107) -0.1262 (112)  0.1864 (116)  0.2037 (117)
 CRD 37=   0.1343 (  2) -0.1215 (  6)  0.2029 (  7) -0.2299 (  8)  0.1562 ( 19)
          -0.1833 ( 22) -0.1833 ( 24)  0.1562 ( 30)  0.1821 ( 33) -0.1705 ( 34)
          -0.1705 ( 35)  0.1821 ( 41)  0.1261 ( 43)  0.1261 ( 48) -0.1192 ( 60)
          -0.1192 ( 61) -0.2088 ( 71) -0.2464 ( 72) -0.1128 ( 73) -0.2155 ( 79)
          -0.1853 ( 80) -0.2054 ( 81)  0.1534 ( 83)  0.1804 ( 86)  0.1119 ( 95)
          -0.1068 ( 96) -0.1273 ( 98)  0.2188 (102)  0.1918 (105)  0.1323 (107)
 CRD 38=   0.1123 (  3)  0.1848 (  9)  0.1848 ( 10)  0.1235 ( 12)  0.1229 ( 15)
           0.1440 ( 17) -0.1019 ( 18)  0.1110 ( 42) -0.1017 ( 49)  0.1101 ( 50)
          -0.1061 ( 52) -0.1122 ( 60) -0.1122 ( 61)  0.2131 ( 68)  0.1290 ( 73)
          -0.1310 ( 75) -0.2189 ( 76) -0.1499 ( 84) -0.1252 ( 90) -0.1404 ( 91)
           0.1262 ( 92)  0.1985 ( 95)  0.1732 ( 99)  0.2233 (101)  0.1290 (102)
          -0.2023 (103) -0.1824 (104)  0.1284 (105)  0.1131 (106)  0.1600 (108)
           0.1037 (111) -0.1179 (112) -0.1607 (114) -0.1221 (115)
 CRD 39=   0.1388 (  3)  0.1636 (  5) -0.1644 (  9) -0.1644 ( 10)  0.1249 ( 20)
           0.1249 ( 21)  0.1249 ( 23)  0.1249 ( 25) -0.1125 ( 32) -0.1125 ( 36)
          -0.1036 ( 38) -0.1036 ( 39) -0.1015 ( 58) -0.1018 ( 69) -0.1246 ( 70)
          -0.1581 ( 73) -0.1189 ( 74) -0.2054 ( 75) -0.1387 ( 82) -0.1183 ( 84)
           0.2296 ( 85)  0.1415 ( 89)  0.1329 ( 96) -0.2150 ( 98)  0.2082 ( 99)
          -0.3660 (100)  0.2281 (101) -0.1510 (102)  0.1410 (103)  0.1182 (104)
          -0.1501 (105)

 THE DETERMINANT OF THE G MATRIX IS 10**(   -13)


                     --------------------
                     INTERNAL COORDINATES
                     --------------------

                 - - ATOMS - -         COORDINATE      COORDINATE
 NO.   TYPE    I  J  K  L  M  N        (BOHR,RAD)       (ANG,DEG)
 ----------------------------------------------------------------
   1 STRETCH   1  2                     2.6745356       1.4153034
   2 STRETCH   1  5                     2.8573170       1.5120271
   3 STRETCH   1 14                     4.8005883       2.5403621
   4 STRETCH   1  2                     2.6745356       1.4153034
   5 STRETCH   1 15                    10.4070343       5.5071658
   6 STRETCH   1  6                     2.0552035       1.0875669
   7 STRETCH   2  7                     2.0559618       1.0879682
   8 STRETCH   2  3                     2.9264293       1.5485998
   9 STRETCH   2 14                     3.6093767       1.9100000
  10 STRETCH   2 14                     3.6093767       1.9100000
  11 STRETCH   3  4                     2.9295629       1.5502580
  12 STRETCH   3  9                     2.0575421       1.0888045
  13 STRETCH   3  8                     2.0546419       1.0872698
  14 STRETCH   4 11                     2.0523921       1.0860792
  15 STRETCH   4 10                     2.0543683       1.0871250
  16 STRETCH   4  5                     2.9352227       1.5532531
  17 STRETCH   5 13                     2.0658712       1.0932120
  18 STRETCH   5 12                     2.0620734       1.0912023
  19 BEND      1  2  3                  1.8560356     106.3430087
  20 BEND      1  2 14                  1.7197348      98.5335451
  21 BEND      1  2 14                  1.7197348      98.5335451
  22 BEND      1  2  7                  2.0618293     118.1341161
  23 BEND      1  2 14                  1.7197348      98.5335451
  24 BEND      1  2  7                  2.0618293     118.1341161
  25 BEND      1  2 14                  1.7197348      98.5335451
  26 BEND      1  5 12                  1.9630488     112.4744139
  27 BEND      1  5 13                  1.8946975     108.5581694
  28 BEND      1 14  2                  0.5835127      33.4328134
  29 BEND      1 14  2                  0.5835127      33.4328134
  30 BEND      1  2  3                  1.8560356     106.3430087
  31 BEND      1  5  4                  1.8182590     104.1785668
  32 BEND      2  1 15                  0.9573606      54.8527241
  33 BEND      2  1  6                  2.1663975     124.1254362
  34 BEND      2  1  5                  1.9603470     112.3196088
  35 BEND      2  1  5                  1.9603470     112.3196088
  36 BEND      2  1 15                  0.9573606      54.8527241
  37 BEND      2  3  4                  1.8109657     103.7606914
  38 BEND      2  1 14                  0.8383452      48.0336415
  39 BEND      2  1 14                  0.8383452      48.0336415
  40 BEND      2  3  9                  1.8969961     108.6898713
  41 BEND      2  1  6                  2.1663975     124.1254362
  42 BEND      2  3  8                  1.9607579     112.3431533
  43 BEND      3  2 14                  1.9332136     110.7649827
  44 BEND      3  2  7                  2.0276475     116.1756442
  45 BEND      3  4 10                  1.9189067     109.9452573
  46 BEND      3  4  5                  1.8356413     105.1744971
  47 BEND      3  4 11                  1.9532393     111.9123680
  48 BEND      3  2 14                  1.9332136     110.7649827
  49 BEND      4  5 13                  1.9490573     111.6727566
  50 BEND      4  5 12                  1.9723844     113.0092999
  51 BEND      4  3  8                  1.9653435     112.6058881
  52 BEND      4  3  9                  1.9368079     110.9709181
  53 BEND      5  1  6                  2.1549385     123.4688790
  54 BEND      5  1 15                  1.8896399     108.2683893
  55 BEND      5  4 10                  1.9171527     109.8447586
  56 BEND      5  4 11                  1.9523422     111.8609685
  57 BEND      5  1 14                  1.9209081     110.0599249
  58 BEND      6  1 15                  1.7719878     101.5274246
  59 BEND      6  1 14                  1.8345339     105.1110507
  60 BEND      7  2 14                  1.8394992     105.3955414
  61 BEND      7  2 14                  1.8394992     105.3955414
  62 BEND      8  3  9                  1.8917545     108.3895492
  63 BEND     10  4 11                  1.8865055     108.0888033
  64 BEND     12  5 13                  1.8666043     106.9485467
  65 BEND     14  1 15                  0.1190588       6.8215692
  66 TORSION   1  5  4 10               1.7553218     100.5725300
  67 TORSION   1  5  4 11              -2.4329298    -139.3966096
  68 TORSION   1  5  4  3              -0.3088973     -17.6985088
  69 TORSION   1  2  3  8              -2.6094300    -149.5093268
  70 TORSION   1  2  3  9               1.5803886      90.5495963
  71 TORSION   1 14  2  3              -1.9403482    -111.1737610
  72 TORSION   1 14  2  7               2.1363468     122.4036541
  73 TORSION   1  2  3  4              -0.4817692     -27.6033438
  74 TORSION   2  1  5 12               2.1485691     123.1039410
  75 TORSION   2  1  5  4               0.0063683       0.3648774
  76 TORSION   2  3  4  5               0.4792916      27.4613871
  77 TORSION   2  3  4 10              -1.5837454     -90.7419274
  78 TORSION   2  3  4 11               2.6027402     149.1260306
  79 TORSION   2 14  1  6              -2.1396737    -122.5942722
  80 TORSION   2 14  1 15               3.1132437     178.3757224
  81 TORSION   2 14  1  5               1.7878493     102.4362167
  82 TORSION   2  1  5 13              -2.0726441    -118.7537599
  83 TORSION   3  2  1 15               1.9974811     114.4472375
  84 TORSION   3  2  1  6              -2.8978244    -166.0331068
  85 TORSION   3  2  1  5               0.3009717      17.2444074
  86 TORSION   3  2  1 14               2.0015986     114.6831537
  87 TORSION   3  4  5 12              -2.4449706    -140.0864961
  88 TORSION   3  4  5 13               1.7327415      99.2787742
  89 TORSION   4  5  1  6              -3.0784585    -176.3826794
  90 TORSION   4  5  1 15              -1.0177943     -58.3153190
  91 TORSION   4  5  1 14              -0.8961600     -51.3461871
  92 TORSION   4  3  2 14               1.3692438      78.4518913
  93 TORSION   4  3  2  7              -2.8163782    -161.3665838
  94 TORSION   5  4  3  9              -1.5551171     -89.1016473
  95 TORSION   5  1  2  7               2.6169274     149.9388964
  96 TORSION   5  1  2 14              -1.7006269     -97.4387463
  97 TORSION   5  4  3  8               2.6038950     149.1921941
  98 TORSION   6  1  2 14               1.3837623      79.2837395
  99 TORSION   6  1  5 13               1.1257144      64.4986833
 100 TORSION   6  1  2  7              -0.5818686     -33.3386178
 101 TORSION   6  1  5 12              -0.9362577     -53.6436158
 102 TORSION   7  2  1 14              -1.9656309    -112.6223573
 103 TORSION   7  2  3  8               1.3391463      76.7274332
 104 TORSION   7  2  3  9              -0.7542204     -43.2136437
 105 TORSION   7  2  1 15              -1.9697485    -112.8582735
 106 TORSION   8  3  4 10               0.5408580      30.9888797
 107 TORSION   8  3  2 14              -0.7584170     -43.4540917
 108 TORSION   8  3  4 11              -1.5558417     -89.1431623
 109 TORSION   9  3  4 10               2.6650312     152.6950383
 110 TORSION   9  3  2 14              -2.8517837    -163.3951685
 111 TORSION   9  3  4 11               0.5683315      32.5629963
 112 TORSION  10  4  5 12              -0.3807516     -21.8154573
 113 TORSION  10  4  5 13              -2.4862248    -142.4501870
 114 TORSION  11  4  5 12               1.7141822      98.2154031
 115 TORSION  11  4  5 13              -0.3912911     -22.4193265
 116 TORSION  12  5  1 15               1.1244065      64.4237446
 117 TORSION  12  5  1 14               1.2460408      71.3928765
 118 TORSION  13  5  1 15              -3.0968067    -177.4339563
 119 TORSION  13  5  1 14              -2.9751724    -170.4648244
 120 TORSION  14  2  1 15              -0.0041175      -0.2359162

     ------------------------------------------
     THE POINT GROUP IS C1 , NAXIS= 0, ORDER= 1
     ------------------------------------------

     DIMENSIONS OF THE SYMMETRY SUBSPACES ARE
 A   =   71

 ..... DONE SETTING UP THE RUN .....
 STEP CPU TIME =     0.07 TOTAL CPU TIME =          0.1 (      0.0 MIN)
 TOTAL WALL CLOCK TIME=          0.1 SECONDS, CPU UTILIZATION IS    77.78%


          -----------------------------
          STATIONARY POINT LOCATION RUN
          -----------------------------

 OBTAINING INITIAL HESSIAN, HESS=CALC    

     ---------------------------------
     HESSIAN MATRIX CONTROL PARAMETERS
     ---------------------------------
     METHOD=ANALYTIC   NVIB  =       2   VIBSIZ= 0.01000
     RDHESS=       F   PURIFY=       F   PRTIFC=       F
     VIBANL=       F   DECOMP=       F   PROJCT=       F
     SCLFAC= 1.00000   PRTSCN=       F   NPRT  =       0
     PULCOR=       F   NPUN  =       0   REDOVB=       T
     HSSTYP=GENERAL 
 Old integral subroutine is used

     ------------------------------
     CPHF RESPONSE SOLUTION OPTIONS
     ------------------------------
     POLAR  =       F     NWORD  =       0
     CPHF   =AO      

          ********************
          1 ELECTRON INTEGRALS
          ********************
 ...... END OF ONE-ELECTRON INTEGRALS ......
 STEP CPU TIME =     0.02 TOTAL CPU TIME =          0.1 (      0.0 MIN)
 TOTAL WALL CLOCK TIME=          0.1 SECONDS, CPU UTILIZATION IS    69.23%

          -------------
          GUESS OPTIONS
          -------------
          GUESS =HUCKEL            NORB  =       0          NORDER=       0
          MIX   =       F          PRTMO =       F          PUNMO =       F
          TOLZ  = 1.0E-08          TOLE  = 1.0E-05
          SYMDEN=       F          PURIFY=       F

 INITIAL GUESS ORBITALS GENERATED BY HUCKEL   ROUTINE.
 HUCKEL GUESS REQUIRES     66792 WORDS.

 SYMMETRIES FOR INITIAL GUESS ORBITALS FOLLOW.   BOTH SET(S).
    54 ORBITALS ARE OCCUPIED (   33 CORE ORBITALS).
    34=A       35=A       36=A       37=A       38=A       39=A       40=A   
    41=A       42=A       43=A       44=A       45=A       46=A       47=A   
    48=A       49=A       50=A       51=A       52=A       53=A       54=A   
    55=A       56=A       57=A       58=A       59=A       60=A       61=A   
    62=A       63=A       64=A   
 ...... END OF INITIAL ORBITAL SELECTION ......
 STEP CPU TIME =     0.02 TOTAL CPU TIME =          0.1 (      0.0 MIN)
 TOTAL WALL CLOCK TIME=          0.2 SECONDS, CPU UTILIZATION IS    73.33%

                    ----------------------
                    AO INTEGRAL TECHNOLOGY
                    ----------------------
     S,P,L SHELL ROTATED AXIS INTEGRALS, REPROGRAMMED BY
        KAZUYA ISHIMURA (IMS) AND JOSE SIERRA (SYNSTAR).
     S,P,D,L SHELL ROTATED AXIS INTEGRALS PROGRAMMED BY
        KAZUYA ISHIMURA (INSTITUTE FOR MOLECULAR SCIENCE).
     S,P,D,F,G SHELL TO TOTAL QUARTET ANGULAR MOMENTUM SUM 5,
        ERIC PROGRAM BY GRAHAM FLETCHER (ELORET AND NASA ADVANCED
        SUPERCOMPUTING DIVISION, AMES RESEARCH CENTER).
     S,P,D,F,G,L SHELL GENERAL RYS QUADRATURE PROGRAMMED BY
        MICHEL DUPUIS (PACIFIC NORTHWEST NATIONAL LABORATORY).

          --------------------
          2 ELECTRON INTEGRALS
          --------------------

 THE -PK- OPTION IS OFF, THE INTEGRALS ARE NOT IN SUPERMATRIX FORM.
 STORING   15000 INTEGRALS/RECORD ON DISK, USING 12 BYTES/INTEGRAL.
 TWO ELECTRON INTEGRAL EVALUATION REQUIRES   90802 WORDS OF MEMORY.
 SCHWARZ INEQUALITY OVERHEAD:      2217 INTEGRALS, T=        0.00
 II,JST,KST,LST =  1  1  1  1 NREC =         1 INTLOC =    1
 II,JST,KST,LST =  2  1  1  1 NREC =         1 INTLOC =    2
 II,JST,KST,LST =  3  1  1  1 NREC =         1 INTLOC =   34
 II,JST,KST,LST =  4  1  1  1 NREC =         1 INTLOC =  142
 II,JST,KST,LST =  5  1  1  1 NREC =         1 INTLOC = 1362
 II,JST,KST,LST =  6  1  1  1 NREC =         1 INTLOC = 1938
 II,JST,KST,LST =  7  1  1  1 NREC =         1 INTLOC = 6835
 II,JST,KST,LST =  8  1  1  1 NREC =         1 INTLOC = 8519
 II,JST,KST,LST =  9  1  1  1 NREC =         2 INTLOC = 5964
 II,JST,KST,LST = 10  1  1  1 NREC =         2 INTLOC = 9814
 II,JST,KST,LST = 11  1  1  1 NREC =         4 INTLOC = 5285
 II,JST,KST,LST = 12  1  1  1 NREC =         4 INTLOC =13876
 II,JST,KST,LST = 13  1  1  1 NREC =         5 INTLOC = 8517
 II,JST,KST,LST = 14  1  1  1 NREC =         6 INTLOC = 4289
 II,JST,KST,LST = 15  1  1  1 NREC =         7 INTLOC = 1281
 II,JST,KST,LST = 16  1  1  1 NREC =         7 INTLOC =14557
 II,JST,KST,LST = 17  1  1  1 NREC =         8 INTLOC =14233
 II,JST,KST,LST = 18  1  1  1 NREC =        10 INTLOC =  378
 II,JST,KST,LST = 19  1  1  1 NREC =        11 INTLOC = 3107
 II,JST,KST,LST = 20  1  1  1 NREC =        12 INTLOC = 2340
 II,JST,KST,LST = 21  1  1  1 NREC =        16 INTLOC =12165
 II,JST,KST,LST = 22  1  1  1 NREC =        23 INTLOC = 9879
 II,JST,KST,LST = 23  1  1  1 NREC =        37 INTLOC =12920
 II,JST,KST,LST = 24  1  1  1 NREC =        52 INTLOC =11236
 II,JST,KST,LST = 25  1  1  1 NREC =        53 INTLOC = 1135
 II,JST,KST,LST = 26  1  1  1 NREC =        55 INTLOC = 3755
 II,JST,KST,LST = 27  1  1  1 NREC =        59 INTLOC = 3368
 II,JST,KST,LST = 28  1  1  1 NREC =        67 INTLOC =12868
 SCHWARZ INEQUALITY TEST SKIPPED       41253 INTEGRAL BLOCKS.
 TOTAL NUMBER OF NONZERO TWO-ELECTRON INTEGRALS =             1306696
         88 INTEGRAL RECORDS WERE STORED ON DISK FILE  8.
  ...... END OF TWO-ELECTRON INTEGRALS .....
 STEP CPU TIME =     0.23 TOTAL CPU TIME =          0.3 (      0.0 MIN)
 TOTAL WALL CLOCK TIME=          0.4 SECONDS, CPU UTILIZATION IS    89.47%

          --------------------------
                 RHF SCF CALCULATION
          --------------------------

     NUCLEAR ENERGY =       762.9272235359
     MAXIT =   30     NPUNCH=    2
     EXTRAP=T  DAMP=F  SHIFT=F  RSTRCT=F  DIIS=F  DEM=F  SOSCF=T
     DENSITY MATRIX CONV=  1.00E-05
     SOSCF WILL OPTIMIZE     918 ORBITAL ROTATIONS, SOGTOL=   0.250
     MEMORY REQUIRED FOR RHF ITERS=     69953 WORDS.

 ITER EX DEM     TOTAL ENERGY        E CHANGE  DENSITY CHANGE     ORB. GRAD
   1  0  0    -5282.5763597415 -5282.5763597415  12.011087188   0.000000000
          ---------------START SECOND ORDER SCF---------------
   2  1  0    -5283.4321771818    -0.8558174403   0.593059188   0.080192682
   3  2  0    -5283.4152319461     0.0169452357   0.232735465   0.064825503
   4  3  0    -5283.4766631794    -0.0614312333   0.199007705   0.021892276
   5  4  0    -5283.4790331344    -0.0023699551   0.109618804   0.024712852
   6  5  0    -5283.4826148972    -0.0035817627   0.011992985   0.003383493
   7  6  0    -5283.4827971059    -0.0001822087   0.013458610   0.002079880
   8  7  0    -5283.4828569064    -0.0000598005   0.002229705   0.000488442
   9  8  0    -5283.4828620182    -0.0000051118   0.000741316   0.000136920
  10  9  0    -5283.4828626802    -0.0000006619   0.000330647   0.000033685
  11 10  0    -5283.4828627366    -0.0000000564   0.000167791   0.000011961
  12 11  0    -5283.4828627433    -0.0000000067   0.000046320   0.000003574
  13 12  0    -5283.4828627439    -0.0000000006   0.000005594   0.000001079
  14 13  0    -5283.4828627439    -0.0000000000   0.000001297   0.000000299

          -----------------
          DENSITY CONVERGED
          -----------------
     TIME TO FORM FOCK OPERATORS=       0.3 SECONDS (       0.0 SEC/ITER)
     TIME TO SOLVE SCF EQUATIONS=       0.1 SECONDS (       0.0 SEC/ITER)

 FINAL RHF ENERGY IS    -5283.4828627439 AFTER  14 ITERATIONS

          ------------
          EIGENVECTORS
          ------------

                      1          2          3          4          5
                 -484.8800  -484.5832   -63.7889   -63.5000   -57.9202
                     A          A          A          A          A   
    1  C  1  S    0.000001   0.000000   0.000123   0.000004   0.000010
    2  C  1  S   -0.000002  -0.000000  -0.000355  -0.000002  -0.000021
    3  C  1  X   -0.000001  -0.000000  -0.000110  -0.000005  -0.000010
    4  C  1  Y   -0.000002  -0.000000  -0.000397  -0.000007  -0.000026
    5  C  1  Z    0.000002   0.000000   0.000380   0.000021   0.000037
    6  C  2  S    0.000003   0.000000   0.000446   0.000022   0.000049
    7  C  2  S   -0.000018  -0.000001  -0.003050  -0.000157  -0.000367
    8  C  2  X   -0.000004  -0.000000  -0.000700  -0.000035  -0.000082
    9  C  2  Y   -0.000012  -0.000000  -0.002097  -0.000072  -0.000219
   10  C  2  Z    0.000011   0.000001   0.001951   0.000116   0.000240
   11  C  3  S    0.000000  -0.000000   0.000012  -0.000000   0.000001
   12  C  3  S    0.000001   0.000000   0.000165   0.000004   0.000013
   13  C  3  X   -0.000000   0.000000  -0.000027   0.000003   0.000002
   14  C  3  Y    0.000000   0.000000   0.000023   0.000004   0.000004
   15  C  3  Z    0.000001  -0.000000   0.000143  -0.000007   0.000002
   16  C  4  S   -0.000000   0.000000  -0.000007   0.000000  -0.000000
   17  C  4  S    0.000001  -0.000000   0.000119  -0.000001   0.000004
   18  C  4  X   -0.000000  -0.000000  -0.000088  -0.000000  -0.000005
   19  C  4  Y    0.000000  -0.000000   0.000014  -0.000002  -0.000002
   20  C  4  Z   -0.000000   0.000000  -0.000008   0.000001   0.000002
   21  C  5  S   -0.000000  -0.000000  -0.000008  -0.000000  -0.000001
   22  C  5  S    0.000001   0.000000   0.000092   0.000002   0.000007
   23  C  5  X    0.000000   0.000000   0.000034   0.000002   0.000003
   24  C  5  Y    0.000000   0.000000  -0.000003   0.000000   0.000000
   25  C  5  Z   -0.000000  -0.000000  -0.000023  -0.000001  -0.000002
   26  H  6  S   -0.000000   0.000000  -0.000023   0.000002   0.000001
   27  H  7  S   -0.000000   0.000000  -0.000091   0.000010   0.000005
   28  H  8  S   -0.000002   0.000000  -0.000284   0.000003  -0.000012
   29  H  9  S   -0.000001  -0.000000  -0.000125  -0.000001  -0.000009
   30  H 10  S   -0.000001   0.000000  -0.000249   0.000001  -0.000009
   31  H 11  S   -0.000000  -0.000000  -0.000042  -0.000000  -0.000002
   32  H 12  S   -0.000000  -0.000000  -0.000060  -0.000001  -0.000003
   33  H 13  S   -0.000000  -0.000000  -0.000037  -0.000001  -0.000003
   34  BR14  S    0.994693   0.000001   0.419605   0.000707  -0.000483
   35  BR14  S    0.014822  -0.000000  -1.059856  -0.001767   0.001231
   36  BR14  X   -0.000001  -0.000000   0.000255  -0.000011   0.232984
   37  BR14  Y   -0.000003  -0.000000   0.000671  -0.000045   0.785505
   38  BR14  Z    0.000004   0.000000  -0.000723   0.000021  -0.560765
   39  BR14  S   -0.073394  -0.000012   2.442925   0.003155  -0.002626
   40  BR14  X    0.000001   0.000000   0.000102   0.000044   0.004390
   41  BR14  Y    0.000002   0.000001   0.000277   0.000177   0.014795
   42  BR14  Z   -0.000002  -0.000001  -0.000284  -0.000086  -0.010570
   43  BR14 XX    0.032042   0.000005  -1.127475  -0.001419   0.001214
   44  BR14 YY    0.032042   0.000005  -1.127505  -0.001423   0.001169
   45  BR14 ZZ    0.032042   0.000005  -1.127481  -0.001419   0.001183
   46  BR14 XY    0.000000  -0.000000  -0.000008  -0.000001  -0.000020
   47  BR14 XZ   -0.000000   0.000000   0.000004   0.000000   0.000017
   48  BR14 YZ   -0.000001   0.000000   0.000012   0.000002   0.000051
   49  BR14  S    0.000096  -0.000003   0.018989  -0.000447   0.000150
   50  BR14  X   -0.000003  -0.000001  -0.000454  -0.000198  -0.000360
   51  BR14  Y   -0.000007  -0.000005  -0.001239  -0.000792  -0.001189
   52  BR14  Z    0.000007   0.000002   0.001265   0.000391   0.000886
   53  BR15  S   -0.000000   0.994691  -0.000660   0.419637  -0.000008
   54  BR15  S   -0.000000   0.014826   0.001684  -1.059912   0.000017
   55  BR15  X    0.000000  -0.000000   0.000010   0.000106   0.000003
   56  BR15  Y    0.000000  -0.000002   0.000040   0.000420   0.000014
   57  BR15  Z   -0.000000   0.000001  -0.000019  -0.000192  -0.000006
   58  BR15  S   -0.000012  -0.073375  -0.004798   2.441665   0.000075
   59  BR15  X   -0.000000   0.000000  -0.000037   0.000012   0.000005
   60  BR15  Y   -0.000001   0.000001  -0.000151   0.000050   0.000021
   61  BR15  Z    0.000000  -0.000000   0.000071  -0.000023  -0.000009
   62  BR15 XX    0.000005   0.032033   0.002251  -1.126876  -0.000039
   63  BR15 YY    0.000005   0.032034   0.002246  -1.126910  -0.000038
   64  BR15 ZZ    0.000005   0.032034   0.002250  -1.126883  -0.000039
   65  BR15 XY   -0.000000   0.000000  -0.000001  -0.000010   0.000000
   66  BR15 XZ    0.000000  -0.000000   0.000001   0.000005  -0.000000
   67  BR15 YZ    0.000000  -0.000000   0.000003   0.000020  -0.000001
   68  BR15  S   -0.000003   0.000087  -0.000524   0.017517   0.000070
   69  BR15  X    0.000001  -0.000000   0.000163  -0.000022  -0.000022
   70  BR15  Y    0.000004  -0.000001   0.000662  -0.000092  -0.000093
   71  BR15  Z   -0.000002   0.000000  -0.000310   0.000042   0.000039

                      6          7          8          9         10
                  -57.9176   -57.9173   -57.6307   -57.6291   -57.6291
                     A          A          A          A          A   
    1  C  1  S    0.000009   0.000001   0.000000  -0.000000  -0.000000
    2  C  1  S   -0.000034  -0.000005  -0.000000   0.000000   0.000000
    3  C  1  X   -0.000015   0.000006  -0.000001   0.000000  -0.000000
    4  C  1  Y   -0.000046   0.000001  -0.000001   0.000001  -0.000000
    5  C  1  Z    0.000047   0.000003   0.000002  -0.000000  -0.000000
    6  C  2  S   -0.000011   0.000000   0.000002   0.000000   0.000000
    7  C  2  S    0.000081  -0.000004  -0.000017  -0.000003   0.000000
    8  C  2  X    0.000011   0.000102  -0.000004  -0.000001  -0.000001
    9  C  2  Y    0.000110  -0.000011  -0.000008  -0.000002   0.000000
   10  C  2  Z    0.000012   0.000014   0.000013   0.000001  -0.000000
   11  C  3  S    0.000000   0.000000  -0.000000  -0.000000   0.000000
   12  C  3  S   -0.000016   0.000020   0.000000   0.000000  -0.000000
   13  C  3  X   -0.000003   0.000006   0.000000   0.000000  -0.000000
   14  C  3  Y   -0.000001  -0.000020   0.000000   0.000000   0.000000
   15  C  3  Z   -0.000013   0.000019  -0.000001   0.000000  -0.000000
   16  C  4  S    0.000000  -0.000000   0.000000  -0.000000   0.000000
   17  C  4  S   -0.000000   0.000010  -0.000000   0.000000  -0.000000
   18  C  4  X   -0.000003  -0.000012  -0.000000   0.000000   0.000000
   19  C  4  Y   -0.000002   0.000001  -0.000000   0.000000  -0.000000
   20  C  4  Z    0.000000  -0.000001   0.000000  -0.000000   0.000000
   21  C  5  S   -0.000000  -0.000000  -0.000000   0.000000   0.000000
   22  C  5  S    0.000006   0.000005   0.000000  -0.000000  -0.000000
   23  C  5  X    0.000002  -0.000000   0.000000  -0.000000   0.000000
   24  C  5  Y   -0.000000  -0.000005   0.000000  -0.000000   0.000000
   25  C  5  Z   -0.000003   0.000005  -0.000000   0.000000  -0.000000
   26  H  6  S   -0.000001   0.000007   0.000000   0.000000  -0.000000
   27  H  7  S    0.000002   0.000004   0.000001   0.000000   0.000000
   28  H  8  S    0.000025  -0.000016   0.000000  -0.000000   0.000000
   29  H  9  S    0.000005  -0.000013  -0.000000  -0.000000   0.000000
   30  H 10  S   -0.000003  -0.000027   0.000000   0.000000   0.000000
   31  H 11  S   -0.000001  -0.000005  -0.000000   0.000000   0.000000
   32  H 12  S   -0.000005  -0.000002  -0.000000   0.000000   0.000000
   33  H 13  S   -0.000003  -0.000003  -0.000000   0.000000   0.000000
   34  BR14  S    0.000095  -0.000003   0.000006   0.000000   0.000000
   35  BR14  S   -0.000242   0.000007  -0.000014  -0.000000  -0.000000
   36  BR14  X   -0.076568   0.962134  -0.000006  -0.000001   0.000004
   37  BR14  Y    0.590127  -0.143267  -0.000026   0.000001  -0.000001
   38  BR14  Z    0.794815   0.199058   0.000013   0.000004   0.000001
   39  BR14  S    0.000513  -0.000015  -0.000066  -0.000001  -0.000000
   40  BR14  X   -0.001435   0.018003   0.000005   0.000001  -0.000003
   41  BR14  Y    0.011043  -0.002681   0.000020  -0.000001   0.000000
   42  BR14  Z    0.014884   0.003725  -0.000010  -0.000003  -0.000001
   43  BR14 XX   -0.000237  -0.000018   0.000035   0.000000   0.000000
   44  BR14 YY   -0.000281   0.000017   0.000034   0.000001   0.000000
   45  BR14 ZZ   -0.000181   0.000022   0.000035   0.000000   0.000000
   46  BR14 XY   -0.000006  -0.000037  -0.000000  -0.000000   0.000000
   47  BR14 XZ   -0.000015   0.000038   0.000000   0.000000  -0.000000
   48  BR14 YZ   -0.000006  -0.000014   0.000000   0.000000   0.000000
   49  BR14  S   -0.000026   0.000000  -0.000058  -0.000000  -0.000000
   50  BR14  X    0.000109  -0.001262  -0.000023  -0.000003   0.000014
   51  BR14  Y   -0.000757   0.000188  -0.000093   0.000003  -0.000002
   52  BR14  Z   -0.001069  -0.000261   0.000045   0.000014   0.000003
   53  BR15  S   -0.000001   0.000000  -0.000208  -0.000005  -0.000002
   54  BR15  S    0.000003  -0.000000   0.000531   0.000012   0.000005
   55  BR15  X    0.000001  -0.000002   0.215685  -0.123440   0.961272
   56  BR15  Y    0.000001   0.000000   0.871731   0.455020  -0.137171
   57  BR15  Z   -0.000003  -0.000000  -0.423474   0.873798   0.207227
   58  BR15  S    0.000012  -0.000000  -0.001186  -0.000026  -0.000011
   59  BR15  X    0.000001  -0.000003   0.004060  -0.002317   0.018047
   60  BR15  Y    0.000002   0.000000   0.016410   0.008543  -0.002575
   61  BR15  Z   -0.000004  -0.000001  -0.007972   0.016405   0.003890
   62  BR15 XX   -0.000006  -0.000000   0.000553   0.000013  -0.000004
   63  BR15 YY   -0.000006   0.000000   0.000522  -0.000005   0.000010
   64  BR15 ZZ   -0.000006   0.000000   0.000548   0.000028   0.000009
   65  BR15 XY    0.000000  -0.000000  -0.000010   0.000000  -0.000021
   66  BR15 XZ   -0.000000   0.000000   0.000005  -0.000006   0.000009
   67  BR15 YZ   -0.000000  -0.000000   0.000018  -0.000015  -0.000006
   68  BR15  S    0.000011  -0.000000   0.000001   0.000000  -0.000000
   69  BR15  X   -0.000005   0.000014  -0.000286   0.000161  -0.001258
   70  BR15  Y   -0.000009  -0.000002  -0.001157  -0.000596   0.000179
   71  BR15  Z    0.000019   0.000003   0.000562  -0.001143  -0.000271

                     11         12         13         14         15
                  -11.1360   -11.1341   -11.1107   -11.0984   -11.0899
                     A          A          A          A          A   
    1  C  1  S    0.989801  -0.071301   0.004779   0.001315   0.000928
    2  C  1  S    0.034031  -0.009563  -0.005896   0.000098   0.000119
    3  C  1  X   -0.000333  -0.000189   0.004092   0.000161   0.000101
    4  C  1  Y    0.001083  -0.003806   0.001046   0.000013  -0.000116
    5  C  1  Z    0.000119  -0.002899   0.001342  -0.000077  -0.000033
    6  C  2  S    0.071988   0.989307   0.001327   0.004746   0.001133
    7  C  2  S   -0.003797   0.037459   0.000211  -0.005458   0.000018
    8  C  2  X    0.000052   0.000019  -0.000048   0.003925   0.000185
    9  C  2  Y    0.003630  -0.001621  -0.000032  -0.000634   0.000004
   10  C  2  Z    0.002301  -0.001379   0.000017  -0.001464   0.000182
   11  C  3  S   -0.001485  -0.003674  -0.002945   0.991794   0.018825
   12  C  3  S   -0.000387  -0.005610   0.000017   0.037204  -0.004881
   13  C  3  X   -0.000291  -0.003851  -0.000125   0.000201   0.002431
   14  C  3  Y    0.000329   0.000555   0.000122  -0.000227   0.001619
   15  C  3  Z    0.000202   0.001281  -0.000032   0.000078   0.002985
   16  C  4  S   -0.000858  -0.000888  -0.007327  -0.017848   0.991791
   17  C  4  S    0.000122   0.000029  -0.005775  -0.006238   0.037007
   18  C  4  X   -0.000156  -0.000170  -0.002284  -0.002264  -0.000068
   19  C  4  Y   -0.000089  -0.000035   0.002945  -0.001679   0.000100
   20  C  4  Z   -0.000008   0.000165   0.001751  -0.003037  -0.000188
   21  C  5  S   -0.003917  -0.001010   0.991899   0.002846   0.008389
   22  C  5  S   -0.005696   0.000507   0.037452   0.000313  -0.005296
   23  C  5  X   -0.003833   0.000288   0.000605  -0.000105   0.002455
   24  C  5  Y   -0.001024   0.000019  -0.000200   0.000086  -0.002932
   25  C  5  Z   -0.001177   0.000112   0.000219  -0.000119  -0.001695
   26  H  6  S   -0.006592   0.000599   0.000056  -0.000101  -0.000108
   27  H  7  S   -0.000456  -0.006826  -0.000059   0.000094  -0.000136
   28  H  8  S   -0.000113   0.000105  -0.000078  -0.006921  -0.000007
   29  H  9  S   -0.000023   0.000029   0.000025  -0.006998  -0.000062
   30  H 10  S    0.000005   0.000054   0.000122   0.000190  -0.007006
   31  H 11  S   -0.000083  -0.000105   0.000168   0.000241  -0.006967
   32  H 12  S   -0.000034   0.000012  -0.006927  -0.000115   0.000073
   33  H 13  S   -0.000119  -0.000010  -0.006989   0.000003   0.000034
   34  BR14  S    0.000015   0.000034  -0.000000   0.000002  -0.000000
   35  BR14  S   -0.000039  -0.000120   0.000001  -0.000003   0.000001
   36  BR14  X    0.000010   0.000032   0.000000   0.000009   0.000001
   37  BR14  Y    0.000050   0.000081  -0.000000   0.000002   0.000001
   38  BR14  Z   -0.000001  -0.000092   0.000000  -0.000004   0.000000
   39  BR14  S   -0.000220  -0.000663  -0.000001  -0.000035  -0.000003
   40  BR14  X   -0.000034  -0.000107  -0.000002  -0.000030  -0.000005
   41  BR14  Y   -0.000172  -0.000271   0.000001  -0.000008  -0.000004
   42  BR14  Z    0.000004   0.000309  -0.000001   0.000016  -0.000001
   43  BR14 XX    0.000140   0.000319  -0.000000   0.000026   0.000002
   44  BR14 YY    0.000128   0.000282   0.000000   0.000027   0.000002
   45  BR14 ZZ    0.000138   0.000281  -0.000001   0.000028   0.000002
   46  BR14 XY   -0.000003  -0.000018   0.000001   0.000002   0.000001
   47  BR14 XZ    0.000001   0.000019  -0.000000  -0.000002  -0.000000
   48  BR14 YZ    0.000002   0.000051   0.000000  -0.000002  -0.000000
   49  BR14  S   -0.000905  -0.003864   0.000017  -0.000027   0.000020
   50  BR14  X    0.000233   0.001101   0.000001   0.000101   0.000012
   51  BR14  Y    0.001150   0.002859  -0.000017   0.000006   0.000012
   52  BR14  Z   -0.000044  -0.003133   0.000001  -0.000009   0.000012
   53  BR15  S    0.000000   0.000002  -0.000000   0.000000   0.000000
   54  BR15  S   -0.000001  -0.000004   0.000000  -0.000000  -0.000000
   55  BR15  X   -0.000000   0.000001   0.000000  -0.000000  -0.000000
   56  BR15  Y   -0.000000   0.000005   0.000000  -0.000000   0.000000
   57  BR15  Z    0.000000  -0.000001  -0.000000   0.000000  -0.000000
   58  BR15  S   -0.000008  -0.000025   0.000000   0.000000  -0.000000
   59  BR15  X    0.000000  -0.000004  -0.000000   0.000000   0.000000
   60  BR15  Y    0.000001  -0.000018  -0.000000   0.000000  -0.000000
   61  BR15  Z    0.000000   0.000005   0.000000  -0.000000   0.000000
   62  BR15 XX    0.000005   0.000015  -0.000000  -0.000000   0.000000
   63  BR15 YY    0.000005   0.000014  -0.000000  -0.000000   0.000000
   64  BR15 ZZ    0.000005   0.000015  -0.000000  -0.000000   0.000000
   65  BR15 XY   -0.000000  -0.000000  -0.000000   0.000000   0.000000
   66  BR15 XZ    0.000000   0.000000   0.000000  -0.000000  -0.000000
   67  BR15 YZ    0.000000   0.000000   0.000000  -0.000000   0.000000
   68  BR15  S   -0.000021  -0.000084   0.000000   0.000000  -0.000001
   69  BR15  X    0.000003   0.000024   0.000000  -0.000002  -0.000000
   70  BR15  Y    0.000012   0.000113   0.000001  -0.000000   0.000001
   71  BR15  Z   -0.000010  -0.000033  -0.000000   0.000001  -0.000001

                     16         17         18         19         20
                   -9.2762    -9.0057    -6.9717    -6.9577    -6.9562
                     A          A          A          A          A   
    1  C  1  S    0.000262   0.000005  -0.000408  -0.000347  -0.000022
    2  C  1  S   -0.000568  -0.000001   0.000915   0.001097   0.000124
    3  C  1  X   -0.000173  -0.000004   0.000348   0.000424  -0.000229
    4  C  1  Y   -0.000623   0.000001   0.001071   0.001356  -0.000004
    5  C  1  Z    0.000516   0.000012  -0.001101  -0.001281  -0.000096
    6  C  2  S    0.000689   0.000034  -0.001318   0.000269  -0.000011
    7  C  2  S   -0.004095  -0.000190   0.010238  -0.002020   0.000111
    8  C  2  X   -0.000890  -0.000042   0.002138  -0.000252  -0.002699
    9  C  2  Y   -0.002686  -0.000083   0.005841  -0.002788   0.000314
   10  C  2  Z    0.002479   0.000138  -0.006214  -0.000476  -0.000375
   11  C  3  S    0.000053  -0.000000  -0.000071   0.000019  -0.000061
   12  C  3  S    0.000159   0.000005  -0.000247   0.000333  -0.000385
   13  C  3  X   -0.000066   0.000004   0.000002   0.000005  -0.000052
   14  C  3  Y   -0.000034   0.000004   0.000042  -0.000041   0.000550
   15  C  3  Z    0.000243  -0.000008  -0.000223   0.000355  -0.000576
   16  C  4  S   -0.000002   0.000000  -0.000011  -0.000010  -0.000008
   17  C  4  S    0.000143  -0.000001  -0.000095   0.000014  -0.000244
   18  C  4  X   -0.000127  -0.000001   0.000152   0.000093   0.000343
   19  C  4  Y    0.000008  -0.000002   0.000056   0.000062   0.000002
   20  C  4  Z    0.000000   0.000001  -0.000061  -0.000017   0.000003
   21  C  5  S   -0.000006  -0.000000   0.000008   0.000004  -0.000003
   22  C  5  S    0.000111   0.000002  -0.000169  -0.000156  -0.000134
   23  C  5  X    0.000032   0.000002  -0.000071  -0.000046   0.000006
   24  C  5  Y   -0.000014  -0.000000  -0.000000   0.000036   0.000137
   25  C  5  Z   -0.000021  -0.000001   0.000037   0.000063  -0.000132
   26  H  6  S   -0.000048   0.000001  -0.000007   0.000070  -0.000200
   27  H  7  S   -0.000219   0.000015   0.000064  -0.000184  -0.000270
   28  H  8  S   -0.000380   0.000003   0.000331  -0.000697   0.000469
   29  H  9  S   -0.000155  -0.000001   0.000248  -0.000114   0.000305
   30  H 10  S   -0.000335   0.000002   0.000266   0.000108   0.000742
   31  H 11  S   -0.000055  -0.000000   0.000070   0.000031   0.000132
   32  H 12  S   -0.000081  -0.000004   0.000081   0.000146   0.000059
   33  H 13  S   -0.000048   0.000001   0.000082   0.000078   0.000088
   34  BR14  S    0.170449   0.000111   0.001600  -0.000216   0.000014
   35  BR14  S   -0.524704  -0.000333  -0.004956   0.000671  -0.000043
   36  BR14  X    0.000897  -0.000005  -0.098703   0.029190  -0.405092
   37  BR14  Y    0.002454  -0.000019  -0.325873  -0.254064   0.061269
   38  BR14  Z   -0.002415   0.000009   0.241615  -0.330599  -0.082854
   39  BR14  S    2.305904   0.001168   0.020779  -0.002785   0.000187
   40  BR14  X   -0.002241   0.000023   0.251764  -0.074482   1.033747
   41  BR14  Y   -0.006132   0.000094   0.831227   0.648334  -0.156350
   42  BR14  Z    0.006031  -0.000044  -0.616281   0.843610   0.211433
   43  BR14 XX   -0.552365  -0.000211  -0.003059   0.000438  -0.001441
   44  BR14 YY   -0.550355  -0.000211  -0.006009  -0.002049   0.000553
   45  BR14 ZZ   -0.551204  -0.000211  -0.005227   0.003516   0.000759
   46  BR14 XY    0.000713   0.000000  -0.001296  -0.000337  -0.002087
   47  BR14 XZ   -0.000564  -0.000000   0.001128  -0.000846   0.002051
   48  BR14 YZ   -0.001612  -0.000000   0.003387  -0.000469  -0.000790
   49  BR14  S    0.031002  -0.000711  -0.005048   0.000721  -0.000014
   50  BR14  X   -0.000793  -0.000271   0.012455  -0.003331   0.043446
   51  BR14  Y   -0.002184  -0.001088   0.040536   0.026975  -0.006580
   52  BR14  Z    0.002164   0.000534  -0.030897   0.036190   0.008884
   53  BR15  S   -0.000060   0.170500   0.000100   0.000019  -0.000000
   54  BR15  S    0.000192  -0.524853  -0.000296  -0.000055   0.000000
   55  BR15  X    0.000006   0.000298  -0.000182  -0.000051   0.000123
   56  BR15  Y    0.000024   0.001175  -0.000776  -0.000097  -0.000017
   57  BR15  Z   -0.000011  -0.000531   0.000323   0.000181   0.000024
   58  BR15  S   -0.001131   2.306150   0.000654   0.000122  -0.000001
   59  BR15  X   -0.000024  -0.000750   0.000438   0.000124  -0.000298
   60  BR15  Y   -0.000098  -0.002962   0.001868   0.000235   0.000041
   61  BR15  Z    0.000046   0.001339  -0.000777  -0.000437  -0.000059
   62  BR15 XX    0.000335  -0.551891  -0.000013  -0.000002  -0.000000
   63  BR15 YY    0.000333  -0.550602  -0.000013  -0.000003   0.000000
   64  BR15 ZZ    0.000335  -0.551651  -0.000013  -0.000002   0.000000
   65  BR15 XY   -0.000001   0.000392  -0.000000  -0.000000  -0.000000
   66  BR15 XZ    0.000000  -0.000190   0.000000  -0.000000   0.000000
   67  BR15 YZ    0.000001  -0.000767   0.000000  -0.000000  -0.000000
   68  BR15  S   -0.000688   0.029660  -0.002113  -0.000393   0.000003
   69  BR15  X    0.000207  -0.000087   0.000653   0.000173  -0.000407
   70  BR15  Y    0.000843  -0.000346   0.002790   0.000331   0.000056
   71  BR15  Z   -0.000396   0.000156  -0.001157  -0.000604  -0.000081

                     21         22         23         24         25
                   -6.6979    -6.6900    -6.6900    -2.3576    -2.3529
                     A          A          A          A          A   
    1  C  1  S   -0.000014   0.000003   0.000000   0.000352  -0.000718
    2  C  1  S    0.000008  -0.000011  -0.000002   0.001813   0.001691
    3  C  1  X    0.000013  -0.000004   0.000001   0.000125   0.000724
    4  C  1  Y    0.000021  -0.000015  -0.000000   0.000959   0.002591
    5  C  1  Z   -0.000051   0.000012   0.000001   0.000622  -0.001835
    6  C  2  S   -0.000067  -0.000012  -0.000000   0.005544   0.001466
    7  C  2  S    0.000429   0.000067   0.000000  -0.022761  -0.006570
    8  C  2  X    0.000094   0.000012   0.000038  -0.005163  -0.001285
    9  C  2  Y    0.000181   0.000061  -0.000003  -0.012035  -0.008855
   10  C  2  Z   -0.000314  -0.000022   0.000005   0.016773  -0.000580
   11  C  3  S    0.000001  -0.000000   0.000000  -0.000051   0.000006
   12  C  3  S   -0.000009  -0.000006   0.000006   0.000978   0.000831
   13  C  3  X   -0.000009  -0.000002   0.000002   0.000507   0.000449
   14  C  3  Y   -0.000008  -0.000000  -0.000007   0.000845   0.000299
   15  C  3  Z    0.000019  -0.000003   0.000005  -0.001112   0.000276
[...]
        SYMMETRY:         A           A           A           A           A   
    REDUCED MASS:      3.47830     1.70090     1.55692     1.70027     1.09388
    IR INTENSITY:      1.43921     0.25455     0.02211     0.15906     0.34528

  1   C            X -0.07772993  0.03674845 -0.02990837 -0.03029406  0.00309230
                   Y -0.10746943 -0.03239419 -0.00487016 -0.08798495  0.00216033
                   Z -0.02982317  0.01596648 -0.00544181 -0.02021826  0.00368500
  2   C            X -0.05215047 -0.06064193  0.02892967  0.01667018  0.00011550
                   Y  0.13771124  0.03220535 -0.04250848  0.08058025 -0.00270594
                   Z  0.03881826 -0.00249808 -0.01060610  0.02892879  0.00165899
  3   C            X  0.08009791  0.11750015 -0.00763838 -0.10198000 -0.00887764
                   Y -0.04276823  0.00566563  0.04790756 -0.01257777 -0.06436754
                   Z -0.00088244  0.01468896  0.00602057 -0.03068490 -0.05176845
  4   C            X -0.05468797 -0.00424827 -0.02815768  0.03183514  0.00049089
                   Y -0.00167254 -0.03425402 -0.14576794 -0.01826280  0.00420487
                   Z  0.00486741 -0.01719705 -0.04495929  0.00491399  0.00538875
  5   C            X  0.10658701 -0.10007228  0.03112781 -0.05968829 -0.01160060
                   Y -0.00691419  0.06410548  0.02247403  0.06183051  0.00316086
                   Z  0.01439708  0.00477698  0.02127014 -0.00970385 -0.00441959
  6   H            X  0.15996828  0.05524659  0.07956445  0.17555241  0.00810917
                   Y  0.08794938 -0.05819441  0.10190420  0.10371078 -0.00189502
                   Z  0.01937148 -0.03368059  0.03217960  0.08595037 -0.01371301
  7   H            X  0.15717885  0.01966570 -0.09013581  0.10779672  0.02167523
                   Y -0.20411805 -0.11212878  0.16031563 -0.12168031 -0.02945220
                   Z -0.05109091 -0.04715244  0.04367482  0.02687911 -0.01379957
  8   H            X -0.04248780 -0.30405834  0.08405719  0.41406792 -0.08665895
                   Y -0.00140823  0.04524758  0.06868696 -0.06224759  0.35032480
                   Z  0.02857925 -0.06343794  0.07308317  0.03777339  0.63811648
  9   H            X -0.10580696 -0.26945689 -0.06475722  0.29406250  0.09982143
                   Y -0.02467446 -0.02728775  0.04599876 -0.09527033  0.54517184
                   Z -0.07733713 -0.11683397 -0.00804583  0.13135867 -0.17732004
 10   H            X  0.02948423  0.03245108  0.07887544  0.05148309  0.11984603
                   Y  0.00110971  0.23981501  0.53830581  0.02899944 -0.01932713
                   Z -0.00300674  0.05843363  0.14420615  0.02103346 -0.00897417
 11   H            X -0.07898442 -0.01587855  0.05750276  0.06650088  0.03462298
                   Y  0.09017695 -0.17202817  0.40111415  0.02053833 -0.06341063
                   Z -0.04140082 -0.03445459  0.11262858  0.06939963  0.08461518
 12   H            X -0.10316705  0.23144368 -0.09638803  0.27393335  0.02376811
                   Y  0.10563850 -0.09658538  0.16368734 -0.12654391 -0.02324489
                   Z -0.00797362  0.03912206 -0.03656248  0.04352117  0.00432118
 13   H            X -0.19016475  0.35274023  0.04087487  0.25363063  0.02650692
                   Y  0.15328807 -0.24340827  0.01332158 -0.11626944 -0.01213882
                   Z -0.03684732  0.03832628  0.01689028  0.03248218  0.00472539
 14   BR           X  0.00207357  0.00036282 -0.00006652  0.00045293  0.00003677
                   Y  0.00006801  0.00021325 -0.00036973  0.00114396 -0.00054616
                   Z -0.00210258 -0.00070212  0.00022524 -0.00111420  0.00018539
 15   BR           X -0.00017357 -0.00003827 -0.00021898  0.00045494 -0.00064846
                   Y  0.00048659 -0.00016316 -0.00003373 -0.00002096 -0.00023055
                   Z  0.00010696  0.00034835  0.00007362 -0.00054239  0.00011160

 TRANS. SAYVETZ    X  0.00000199 -0.00000038  0.00000052  0.00000017  0.00000081
                   Y  0.00000010 -0.00000087 -0.00000046 -0.00000081  0.00000014
                   Z  0.00000086  0.00000133  0.00000015  0.00000097 -0.00000093
               TOTAL  0.00000217  0.00000164  0.00000072  0.00000128  0.00000124

   ROT. SAYVETZ    X  0.00000429 -0.00008241 -0.00000701 -0.00002889  0.00002531
                   Y  0.00015506 -0.00014257  0.00004352  0.00011657  0.00017501
                   Z -0.00022518  0.00012490  0.00005141 -0.00010471 -0.00018573
               TOTAL  0.00027344  0.00020668  0.00006772  0.00015933  0.00025645

                           36          37          38          39          40
       FREQUENCY:      1795.40     1821.92     3393.10     3605.82     3634.78  
        SYMMETRY:         A           A           A           A           A   
    REDUCED MASS:      1.09568     1.11079     1.08376     1.06707     1.06851
    IR INTENSITY:      0.00719     0.05017     1.39423     0.01585     0.00110

  1   C            X  0.00136638  0.00222099 -0.00167948  0.00129883 -0.00062789
                   Y -0.00665253  0.00130255 -0.00111372 -0.00381502  0.00085259
                   Z  0.00259537  0.00062440  0.00005511  0.00074136 -0.00047068
  2   C            X -0.00116686  0.00081264  0.00359570 -0.00004422 -0.00052070
                   Y  0.00525334 -0.00114616 -0.00004574  0.00028109 -0.00005357
                   Z -0.00017617 -0.00196576 -0.00237141  0.00057481 -0.00059034
  3   C            X  0.00095765  0.00528447 -0.01054353  0.00020271  0.00231664
                   Y -0.00508389  0.01406686 -0.07447729 -0.00071928  0.00070736
                   Z -0.00314378  0.00913337  0.02616573  0.00029042  0.00021960
  4   C            X  0.01586237 -0.07207219  0.00034252 -0.00413400 -0.05714263
                   Y  0.00209306  0.02433858  0.00197612 -0.00140224  0.01965387
                   Z  0.01140943 -0.03908230  0.00011410 -0.00111444 -0.03830022
  5   C            X -0.04117632 -0.00783064  0.00077202  0.03494653 -0.00075301
                   Y -0.07130613 -0.02704853 -0.00010406  0.06106596 -0.00541620
                   Z -0.00292679 -0.00174110  0.00063950 -0.00787910  0.00328458
  6   H            X -0.00596803 -0.01347443  0.00122172 -0.02776636  0.01057023
                   Y -0.01792336 -0.01104894 -0.00650064  0.03843538 -0.01311384
                   Z  0.00060167  0.00317962  0.00936841 -0.01705767  0.00672016
  7   H            X  0.00643329 -0.00825234 -0.00541783 -0.00441907  0.01039742
                   Y -0.01476964  0.00632832  0.00040406 -0.00193024  0.00289200
                   Z -0.00018107  0.00614999  0.00079931 -0.00424913  0.00896859
  8   H            X -0.00257876 -0.00110923  0.13480096  0.00059647 -0.00073414
                   Y  0.01350077 -0.04760606  0.79853208  0.00460549 -0.00208159
                   Z  0.02526474 -0.09640253 -0.47458308 -0.00323303  0.00193654
  9   H            X  0.00283506 -0.02915344 -0.06417059 -0.00023841 -0.00186322
                   Y  0.01558406 -0.07258794  0.05379933  0.00024755  0.00493791
                   Z -0.00783645  0.01871026  0.16727893  0.00084736  0.01249739
 10   H            X -0.17859406  0.62442307 -0.00011341  0.00322535  0.04256958
                   Y  0.01054457 -0.07780484  0.00357901 -0.01326846 -0.19720290
                   Z  0.02824668 -0.11454380 -0.00268330  0.03291195  0.68835347
 11   H            X -0.06146025  0.18801329  0.00580584  0.04630719  0.58613570
                   Y  0.02821186 -0.19508567  0.00210826 -0.00053822 -0.01748413
                   Z -0.16403713  0.57438137  0.00118787 -0.01882388 -0.26038388
 12   H            X  0.31427645  0.06105321 -0.00040264 -0.10072736  0.00123472
                   Y  0.41871585  0.12286854  0.00579884 -0.31103124  0.00850253
                   Z -0.39032090 -0.11353317  0.00518425 -0.49473621  0.01459401
 13   H            X  0.20127331  0.03402388 -0.00229107 -0.29631008  0.02564955
                   Y  0.42850229  0.12435198  0.00185806 -0.37063441  0.02651866
                   Z  0.43447814  0.11227425 -0.00279695  0.59067524 -0.04641302
 14   BR           X  0.00013504 -0.00012883 -0.00010068 -0.00006105  0.00002872
                   Y  0.00031817  0.00018738  0.00047858 -0.00007603 -0.00000154
                   Z -0.00022192  0.00000091  0.00020113  0.00001705  0.00000498
 15   BR           X  0.00001072  0.00008826  0.00035633 -0.00000151 -0.00000975
                   Y -0.00007636 -0.00001501 -0.00023946  0.00000389 -0.00000396
                   Z -0.00001548  0.00003847 -0.00015896  0.00000363  0.00000358

 TRANS. SAYVETZ    X  0.00000019 -0.00000011 -0.00000113  0.00000020 -0.00000022
                   Y  0.00000033  0.00000020  0.00000010  0.00000006  0.00000020
                   Z -0.00000029  0.00000054  0.00000185 -0.00000079 -0.00000029
               TOTAL  0.00000048  0.00000058  0.00000217  0.00000081  0.00000042

   ROT. SAYVETZ    X  0.00003465  0.00001557 -0.00000182 -0.00001164 -0.00000053
                   Y  0.00001391 -0.00001991 -0.00003233  0.00001202 -0.00001137
                   Z -0.00004411  0.00003042 -0.00006874  0.00000437 -0.00000339
               TOTAL  0.00005779  0.00003955  0.00007599  0.00001729  0.00001187

                           41          42          43          44          45
       FREQUENCY:      3685.31     3686.82     3700.54     3722.31     3749.91  
        SYMMETRY:         A           A           A           A           A   
    REDUCED MASS:      1.09461     1.09742     1.09960     1.11061     1.11154
    IR INTENSITY:      1.36936     0.11173     1.75512     0.01711     0.01482

  1   C            X  0.04288416  0.00952233 -0.01804531  0.00299662  0.00070968
                   Y -0.05568390 -0.01328865  0.02849351 -0.00285638 -0.00107956
                   Z  0.02777929  0.00610420 -0.01175595  0.00167226  0.00044581
  2   C            X -0.02739630  0.00894125 -0.05383785  0.00253527  0.00097762
                   Y -0.00692906  0.00547753 -0.02036433  0.00114565  0.00034756
                   Z -0.02395173  0.00988140 -0.05009697  0.00210892  0.00094384
  3   C            X -0.00193134  0.02753997  0.00954165 -0.00014104 -0.00041801
                   Y  0.00028134 -0.00905189 -0.00359906  0.00071174  0.00100220
                   Z  0.00973018 -0.07783156 -0.01866868  0.00027829  0.00198527
  4   C            X -0.00015835 -0.00069488  0.00049044 -0.00502762 -0.05176906
                   Y  0.00033933  0.00075339 -0.00072199 -0.00001851 -0.01298768
                   Z -0.00129511  0.00365573  0.00337004  0.00437476  0.07485286
  5   C            X -0.00453228 -0.00117076  0.00268189  0.00711630 -0.00070107
                   Y -0.00192370 -0.00052556  0.00156306 -0.01043766 -0.00041824
                   Z  0.00206400  0.00094119 -0.00434354 -0.09045647  0.00520786
  6   H            X -0.46832888 -0.10672360  0.21254291 -0.02488612 -0.00586646
                   Y  0.62816171  0.14454825 -0.28653768  0.03334694  0.00846253
                   Z -0.31708964 -0.07336926  0.14268635 -0.01540841 -0.00391251
  7   H            X  0.30158132 -0.11539656  0.59669904 -0.02404473 -0.00842996
                   Y  0.10479549 -0.04304793  0.21005764 -0.00813458 -0.00330458
                   Z  0.27630163 -0.10535199  0.54551075 -0.02206117 -0.00763689
  8   H            X  0.00407767 -0.02120111 -0.00677707 -0.00017051  0.00087460
                   Y  0.02285991 -0.13598196 -0.03481712 -0.00181710  0.00156456
                   Z -0.01406495  0.07681362  0.02018195  0.00157994  0.00018249
  9   H            X  0.03213837 -0.29484484 -0.07531030  0.00180942  0.00841398
                   Y -0.02385445  0.21867254  0.05626208 -0.00123908 -0.01010515
                   Z -0.09340897  0.82423657  0.20459068 -0.00445965 -0.02975361
 10   H            X  0.00047063  0.00187566 -0.00126989  0.00087923 -0.04211458
                   Y -0.00386218  0.00826000  0.00916895  0.00271030  0.17255151
                   Z  0.01213082 -0.01967535 -0.03018864 -0.01988377 -0.60158993
 11   H            X -0.00221478  0.01174747  0.00641782  0.05511148  0.64326473
                   Y  0.00054051 -0.00260337 -0.00048515 -0.00062417 -0.01995073
                   Z  0.00100805 -0.00572437 -0.00262182 -0.02343359 -0.27978018
 12   H            X  0.00193114 -0.00039736  0.00437374  0.13005465 -0.00573192
                   Y  0.00253204 -0.00178942  0.01181457  0.39843746 -0.02092255
                   Z  0.00491900 -0.00238281  0.01827860  0.61773305 -0.03207789
 13   H            X  0.02142956  0.00741204 -0.02070879 -0.22424304  0.01787808
                   Y  0.02395615  0.00790705 -0.02492802 -0.28429787  0.02734498
                   Z -0.03627346 -0.01197625  0.03852366  0.44328229 -0.03678301
 14   BR           X  0.00005446 -0.00001473 -0.00014200 -0.00004788  0.00001130
                   Y  0.00000757 -0.00002105  0.00000770 -0.00002280  0.00000822
                   Z -0.00006820 -0.00006047  0.00041962 -0.00000937 -0.00002375
 15   BR           X -0.00001168 -0.00008762 -0.00000423  0.00000231  0.00000595
                   Y  0.00006787  0.00004796 -0.00006503 -0.00000258  0.00000154
                   Z  0.00001575  0.00004878  0.00000674  0.00000012 -0.00000310

 TRANS. SAYVETZ    X -0.00000046  0.00000028 -0.00000012  0.00000005 -0.00000004
                   Y -0.00000026  0.00000019 -0.00000011 -0.00000010  0.00000006
                   Z -0.00000020  0.00000035 -0.00000029  0.00000001 -0.00000009
               TOTAL  0.00000056  0.00000048  0.00000033  0.00000011  0.00000012

   ROT. SAYVETZ    X -0.00003702  0.00002575  0.00001421  0.00000137 -0.00000162
                   Y -0.00002548  0.00002935  0.00005181  0.00000495 -0.00000507
                   Z -0.00001962  0.00000724  0.00000935  0.00000392 -0.00000235
               TOTAL  0.00004903  0.00003970  0.00005453  0.00000646  0.00000582

 REFERENCE ON SAYVETZ CONDITIONS - A. SAYVETZ, J.CHEM.PHYS., 7, 383-389(1939).

 NOTE - THE MODES J,K ARE ORTHONORMALIZED ACCORDING TO
 SUM ON I   M(I) * (X(I,J)*X(I,K) + Y(I,J)*Y(I,K) + Z(I,J)*Z(I,K)) = DELTA(J,K)

  MODE FREQ(CM**-1)  SYMMETRY  RED. MASS  IR INTENS.
     1     127.471    A        6.288009    0.755553
     2       5.826    A        5.005099    0.066688
     3       4.427    A        8.989731    0.165031
     4       2.583    A        8.845351    0.133223
     5       0.213    A       15.068331    0.000000
     6       0.221    A       14.801332    0.000009
     7       0.259    A       15.089251    0.000003
     8     106.989    A        4.091152    0.210660
     9     170.228    A        3.866447    0.787758
    10     187.935    A        3.273292    0.665725
    11     276.736    A        3.225603    0.062831
    12     315.680    A        2.699805    0.322595
    13     525.745    A        3.650159    0.399047
    14     634.273    A        4.709311    0.556174
    15     756.406    A        2.464949    0.118985
    16     822.155    A        5.180936    0.525614
    17     946.116    A        1.545280    0.105852
    18    1025.761    A        2.506259    0.041221
    19    1034.465    A        1.415738    0.125709
    20    1059.348    A        1.912982    0.028120
    21    1073.144    A        1.707120    0.252251
    22    1135.776    A        1.413822    2.192975
    23    1176.474    A        1.202984    0.317559
    24    1212.417    A        1.255973    0.208474
    25    1243.657    A        1.518779    0.008868
    26    1311.106    A        1.663772    3.081652
    27    1379.227    A        1.224745    0.193948
    28    1457.929    A        1.323398    0.160652
    29    1469.775    A        1.186256    0.542973
    30    1507.910    A        1.335074    0.128390
    31    1550.727    A        3.478302    1.439209
    32    1589.509    A        1.700897    0.254549
    33    1629.392    A        1.556919    0.022111
    34    1637.601    A        1.700269    0.159065
    35    1756.926    A        1.093878    0.345282
    36    1795.396    A        1.095680    0.007191
    37    1821.925    A        1.110788    0.050168
    38    3393.099    A        1.083755    1.394232
    39    3605.815    A        1.067065    0.015847
    40    3634.777    A        1.068513    0.001100
    41    3685.311    A        1.094608    1.369358
    42    3686.823    A        1.097421    0.111731
    43    3700.541    A        1.099604    1.755121
    44    3722.308    A        1.110605    0.017107
    45    3749.912    A        1.111538    0.014821

     -------------------------------
     THERMOCHEMISTRY AT T=  298.15 K
     -------------------------------

 USING IDEAL GAS, RIGID ROTOR, HARMONIC NORMAL MODE APPROXIMATIONS.
 P=  1.01325E+05 PASCAL.
 ALL FREQUENCIES ARE SCALED BY   1.00000
 THE MOMENTS OF INERTIA ARE (IN AMU*BOHR**2)
            849.13109          2382.93663          2911.32166
 THE ROTATIONAL SYMMETRY NUMBER IS  1.0
 THE ROTATIONAL CONSTANTS ARE (IN GHZ)
      2.12345     0.75667     0.61934
   1 IMAGINARY FREQUENCY VIBRATION(S) IS(ARE) EXCLUDED
     FROM THE FOLLOWING THERMOCHEMICAL ANALYSIS.
      8 -     45 VIBRATIONAL MODES ARE USED IN THERMOCHEMISTRY.
 THE HARMONIC ZERO POINT ENERGY IS (SCALED BY   1.000)
        0.140766 HARTREE/MOLECULE    30894.656734 CM**-1/MOLECULE 
       88.332345 KCAL/MOL              369.582531 KJ/MOL

               Q               LN Q
 ELEC.     1.00000E+00       0.000000
 TRANS.    1.33452E+08      18.709254
 ROT.      8.68821E+05      13.674892
 VIB.      1.62554E+01       2.788428
 TOT.      1.88475E+15      35.172574

              E         H         G         CV        CP        S
           KJ/MOL    KJ/MOL    KJ/MOL   J/MOL-K   J/MOL-K   J/MOL-K
 ELEC.      0.000     0.000     0.000     0.000     0.000     0.000
 TRANS.     3.718     6.197   -46.379    12.472    20.786   176.342
 ROT.       3.718     3.718   -33.899    12.472    12.472   126.170
 VIB.     378.938   378.938   362.670    66.603    66.603    54.562
 TOTAL    386.375   388.854   282.392    91.546    99.861   357.074
 VIB. THERMAL CORRECTION E(T)-E(0) = H(T)-H(0) =      9355.205 J/MOL

              E         H         G         CV        CP        S
         KCAL/MOL  KCAL/MOL  KCAL/MOL CAL/MOL-K CAL/MOL-K CAL/MOL-K
 ELEC.      0.000     0.000     0.000     0.000     0.000     0.000
 TRANS.     0.889     1.481   -11.085     2.981     4.968    42.147
 ROT.       0.889     0.889    -8.102     2.981     2.981    30.155
 VIB.      90.568    90.568    86.680    15.918    15.918    13.041
 TOTAL     92.346    92.938    67.493    21.880    23.867    85.343
 VIB. THERMAL CORRECTION E(T)-E(0) = H(T)-H(0) =      2235.948 CAL/MOL
 ......END OF NORMAL COORDINATE ANALYSIS......
 STEP CPU TIME =     0.00 TOTAL CPU TIME =        265.7 (      4.4 MIN)
 TOTAL WALL CLOCK TIME=        268.5 SECONDS, CPU UTILIZATION IS    98.98%
               992139  WORDS OF DYNAMIC MEMORY USED
 EXECUTION OF GAMESS TERMINATED NORMALLY Sun Nov 14 19:56:12 2021
 DDI: 263640 bytes (0.3 MB / 0 MWords) used by master data server.

 ----------------------------------------
 CPU timing information for all processes
 ========================================
 0: 260.247 + 5.494 = 265.741
 ----------------------------------------
 ddikick.x: exited gracefully.
----- accounting info -----
Files used on the master node chemcompute-node-0.novalocal were:
-rw-r--r--. 1 chemcomp chemcomp     1262 Nov 14 19:51 /scratch/306501/342512.F05
-rw-rw-r--. 1 chemcomp chemcomp 20521824 Nov 14 19:55 /scratch/306501/342512.F08
-rw-rw-r--. 1 chemcomp chemcomp 85196800 Nov 14 19:56 /scratch/306501/342512.F10
-rw-rw-r--. 1 chemcomp chemcomp   920520 Nov 14 19:56 /scratch/306501/342512.F18
Sun Nov 14 19:56:15 UTC 2021
0.116u 0.097s 4:32.06 0.0%	0+0k 8+224io 0pf+0w
Finishing Up...
Looking for IR data...
Looking for Raman data...
vibramans not found
Looking for thermodynamics data...
Looking for UV-Vis data...
306501
