----- GAMESS execution script 'rungms' -----
This job is running on host chemcompute-node-0.novalocal
under operating system Linux at Sun Nov 14 19:14:47 UTC 2021
SLURM has assigned the following compute nodes to this run:
chemcompute-node-0
Available scratch disk space (Kbyte units) at beginning of the job is
Filesystem     1K-blocks     Used Available Use% Mounted on
/dev/sda1       62903276 16798176  46105100  27% /
GAMESS temporary binary files will be written to /scratch/306497
GAMESS supplementary output files will be written to /data/slurm/342508
Copying input file 342508.inp to your run's scratch directory...
The generated host list is
chemcompute-node-0.novalocal

 Distributed Data Interface kickoff program.
 Initiating 1 compute processes on 1 nodes to run the following command:
 /data/gamess-2019R1-ddi/gamess.00.x 342508 

          ******************************************************
          *         GAMESS VERSION = 30 JUN 2019 (R1)          *
          *             FROM IOWA STATE UNIVERSITY             *
          * M.W.SCHMIDT, K.K.BALDRIDGE, J.A.BOATZ, S.T.ELBERT, *
          *   M.S.GORDON, J.H.JENSEN, S.KOSEKI, N.MATSUNAGA,   *
          *          K.A.NGUYEN, S.J.SU, T.L.WINDUS,           *
          *       TOGETHER WITH M.DUPUIS, J.A.MONTGOMERY       *
          *         J.COMPUT.CHEM.  14, 1347-1363(1993)        *
          **************** 64 BIT LINUX VERSION ****************

  SINCE 1993, STUDENTS AND POSTDOCS WORKING AT IOWA STATE UNIVERSITY
  AND ALSO IN THEIR VARIOUS JOBS AFTER LEAVING ISU HAVE MADE IMPORTANT
  CONTRIBUTIONS TO THE CODE:
     IVANA ADAMOVIC, CHRISTINE AIKENS, YURI ALEXEEV, POOJA ARORA,
     ANDREY ASADCHEV, ROB BELL, PRADIPTA BANDYOPADHYAY, JONATHAN BENTZ,
     COLLEEN BERTONI, BRETT BODE, KURT BRORSEN, CALEB CARLIN, GALINA CHABAN,
     WEI CHEN, CHEOL HO CHOI, PAUL DAY, ALBERT DEFUSCO, NUWAN DESILVA,
     TIM DUDLEY, DMITRI FEDOROV, ALEX FINDLATER, GRAHAM FLETCHER, 
     MARK FREITAG, KURT GLAESEMANN, ANASTASIA GUNINA,
     DAN KEMP, GRANT MERRILL, NORIYUKI MINEZAWA, JONATHAN MULLIN,
     TAKESHI NAGATA, SEAN NEDD, HEATHER NETZLOFF, BOSILJKA NJEGIC, RYAN OLSON,
     MIKE PAK, BUU PHAM,
     SPENCER PRUITT, LUKE ROSKOP, JIM SHOEMAKER, LYUDMILA SLIPCHENKO,
     TONY SMITH, SAROM SOK LEANG, JIE SONG, TETSUYA TAKETSUGU, SIMON WEBB,
     PENG XU, SOOHAENG YOO, FEDERICO ZAHARIEV

  ADDITIONAL CODE HAS BEEN PROVIDED BY COLLABORATORS IN OTHER GROUPS:
     IOWA STATE UNIVERSITY:
          JOE IVANIC, AARON WEST, LAIMUTIS BYTAUTAS, KLAUS RUEDENBERG
     UNIVERSITY OF TOKYO: KIMIHIKO HIRAO, TAKAHITO NAKAJIMA,
          TAKAO TSUNEDA, MUNEAKI KAMIYA, SUSUMU YANAGISAWA,
          KIYOSHI YAGI, MAHITO CHIBA, SEIKEN TOKURA, NAOAKI KAWAKAMI
     UNIVERSITY OF AARHUS: FRANK JENSEN
     UNIVERSITY OF IOWA: VISVALDAS KAIRYS, HUI LI
     NATIONAL INST. OF STANDARDS AND TECHNOLOGY: WALT STEVENS, DAVID GARMER
     UNIVERSITY OF PISA: BENEDETTA MENNUCCI, JACOPO TOMASI
     UNIVERSITY OF MEMPHIS: HENRY KURTZ, PRAKASHAN KORAMBATH
     UNIVERSITY OF ALBERTA: TOBY ZENG, MARIUSZ KLOBUKOWSKI
     UNIVERSITY OF NEW ENGLAND: MARK SPACKMAN
     MIE UNIVERSITY: HIROAKI UMEDA
     NAT. INST. OF ADVANCED INDUSTRIAL SCIENCE AND TECHNOLOGY: KAZUO KITAURA
     MICHIGAN STATE UNIVERSITY:
          KAROL KOWALSKI, MARTA WLOCH, JEFFREY GOUR, JESSE LUTZ,
          WEI LI, JUN SHEN, J. EMILIANO DEUSTUA, PIOTR PIECUCH
     UNIVERSITY OF MINNESOTA:
          YINAN SHU
     UNIVERSITY OF SILESIA: MONIKA MUSIAL, STANISLAW KUCHARSKI
     FACULTES UNIVERSITAIRES NOTRE-DAME DE LA PAIX:
          OLIVIER QUINET, BENOIT CHAMPAGNE
     UNIVERSITY OF CALIFORNIA - SANTA BARBARA: BERNARD KIRTMAN
     INSTITUTE FOR MOLECULAR SCIENCE:
          KAZUYA ISHIMURA, MICHIO KATOUDA, AND SHIGERU NAGASE
     UNIVERSITY OF NOTRE DAME: ANNA POMOGAEVA, DAN CHIPMAN
     KYUSHU UNIVERSITY:
          HARUYUKI NAKANO,
          FENG LONG GU, JACEK KORCHOWIEC, MARCIN MAKOWSKI, AND YURIKO AOKI,
          HIROTOSHI MORI AND EISAKU MIYOSHI
     PENNSYLVANIA STATE UNIVERSITY:
          TZVETELIN IORDANOV, CHET SWALINA, JONATHAN SKONE,
          SHARON HAMMES-SCHIFFER
     WASEDA UNIVERSITY:
          MASATO KOBAYASHI, TOMOKO AKAMA, TSUGUKI TOUMA,
          TAKESHI YOSHIKAWA, YASUHIRO IKABATA, JUNJI SEINO,
          YUYA NAKAJIMA, HIROMI NAKAI
     NANJING UNIVERSITY: SHUHUA LI
     UNIVERSITY OF NEBRASKA:
          PEIFENG SU, DEJUN SI, NANDUN THELLAMUREGE, YALI WANG, HUI LI
     UNIVERSITY OF ZURICH: ROBERTO PEVERATI, KIM BALDRIDGE
     N. COPERNICUS UNIVERSITY AND JACKSON STATE UNIVERSITY:
          MARIA BARYSZ
     UNIVERSITY OF COPENHAGEN: Jimmy Kromann, CASPER STEINMANN
     TOKYO INSTITUTE OF TECHNOLOGY: HIROYA NAKATA
     NAGOYA UNIVERSITY: YOSHIO NISHIMOTO, STEPHAN IRLE
     MOSCOW STATE UNIVERSITY: VLADIMIR MIRONOV
     A.N.NESMEYANOV INSTITUTE OF ORGANOELEMENT COMPOUNDS OF RUSSIAN ACADEMY OF SCIENCES:
          IGOR S. GERASIMOV

 EXECUTION OF GAMESS BEGUN Sun Nov 14 19:14:48 2021

            ECHO OF THE FIRST FEW INPUT CARDS -
 INPUT CARD>!File created by the GAMESS Input Deck Generator Plugin for Avogadro            
 INPUT CARD> $BASIS GBASIS=STO NGAUSS=3 $END                                                
 INPUT CARD> $CONTRL SCFTYP=RHF RUNTYP=OPTIMIZE NZVAR=1 mult=1  ICHARG=0 $END               
 INPUT CARD> $STATPT hssend=.t. OPTTOL=0.0005 NSTEP=50 $END                                 
 INPUT CARD> $STATPT HESS=calc ihrep=5 $END                                                 
 INPUT CARD> $FORCE nvib=2 $END                                                             
 INPUT CARD> $ZMAT DLC=.t. auto=.t. nonvdw(1)=2,14,15,14 $END                               
 INPUT CARD> $ZMAT IFZMAT(1)=1,2,14,1,14,15 fvalue(1)=1.91,3.00 $END                        
 INPUT CARD>                                                                                
 INPUT CARD> $DATA                                                                          
 INPUT CARD>Title                                                                           
 INPUT CARD>C1                                                                              
 INPUT CARD>C     6.0     0.90034    -0.84507     0.00560                                   
 INPUT CARD>C     6.0     0.96855     0.50788    -0.22164                                   
 INPUT CARD>C     6.0    -0.43722     1.04951     0.17993                                   
 INPUT CARD>C     6.0    -1.35421    -0.14497    -0.06112                                   
 INPUT CARD>C     6.0    -0.48678    -1.36898     0.19225                                   
 INPUT CARD>H     1.0     1.77321    -1.45890     0.19539                                   
 INPUT CARD>H     1.0     1.86690     0.96839     0.26215                                   
 INPUT CARD>H     1.0    -0.75409     1.92163    -0.40044                                   
 INPUT CARD>H     1.0    -0.42045     1.33271     1.23930                                   
 INPUT CARD>H     1.0    -1.70593    -0.14480    -1.10086                                   
 INPUT CARD>H     1.0    -2.23854    -0.12288     0.58346                                   
 INPUT CARD>H     1.0    -0.71625    -2.17949    -0.50498                                   
 INPUT CARD>H     1.0    -0.61128    -1.73524     1.21654                                   
 INPUT CARD>Br    35.0     1.44902     1.07256    -1.97861                                  
 INPUT CARD>Br    35.0     1.92261     4.02575    -1.78530                                  
 INPUT CARD> $END                                                                           
    1000000 WORDS OF MEMORY AVAILABLE

     BASIS OPTIONS
     -------------
     GBASIS=STO          IGAUSS=       3      POLAR=NONE    
     NDFUNC=       0     NFFUNC=       0     DIFFSP=       F
     NPFUNC=       0      DIFFS=       F     BASNAM=        


     RUN TITLE
     ---------
 Title                                                                           

 THE POINT GROUP OF THE MOLECULE IS C1      
 THE ORDER OF THE PRINCIPAL AXIS IS     0

 ATOM      ATOMIC                      COORDINATES (BOHR)
           CHARGE         X                   Y                   Z
 C           6.0     1.7013958958       -1.5969507404        0.0105824655
 C           6.0     1.8302941054        0.9597540346       -0.4188388679
 C           6.0    -0.8262259964        1.9832863214        0.3400183970
 C           6.0    -2.5590858298       -0.2739535764       -0.1155000524
 C           6.0    -0.9198808163       -2.5869970827        0.3632998211
 H           1.0     3.3508810187       -2.7569212435        0.3692335607
 H           1.0     3.5279294465        1.8299917492        0.4953916677
 H           1.0    -1.4250234701        3.6313541498       -0.7567218745
 H           1.0    -0.7945352915        2.5184567211        2.3419374166
 H           1.0    -3.2237402542       -0.2736323230       -2.0803237508
 H           1.0    -4.2302272126       -0.2322095294        1.1025795248
 H           1.0    -1.3535162387       -4.1186388930       -0.9542738293
 H           1.0    -1.1551517018       -3.2791281229        2.2989272531
 BR         35.0     2.7382507507        2.0268445054       -3.7390307366
 BR         35.0     3.6332060813        7.6075643951       -3.3737278059

          INTERNUCLEAR DISTANCES (ANGS.)
          ------------------------------

                1 C          2 C          3 C          4 C          5 C     

   1 C       0.0000000    1.3735954 *  2.3257023 *  2.3616916 *  1.4944637 *
   2 C       1.3735954 *  0.0000000    1.5591058 *  2.4180971 *  2.4107870 *
   3 C       2.3257023 *  1.5591058 *  0.0000000    1.5250437 *  2.4190291 *
   4 C       2.3616916 *  2.4180971 *  1.5250437 *  0.0000000    1.5214571 *
   5 C       1.4944637 *  2.4107870 *  2.4190291 *  1.5214571 *  0.0000000  
   6 H       1.0838402 *  2.1655520 *  3.3434055    3.4019061    2.2617803 *
   7 H       2.0709161 *  1.1194440 *  2.3070131 *  3.4233936    3.3178297  
   8 H       3.2490977    2.2356536 *  1.0944538 *  2.1785586 *  3.3542287  
   9 H       2.8300579 *  2.1780751 *  1.0966988 *  2.1786551 *  2.8982481 *
  10 H       2.9167234 *  2.8899589 *  2.1625042 *  1.0976184 *  2.1580262 *
  11 H       3.2723154    3.3662250    2.1867987 *  1.0945368 *  2.1850569 *
  12 H       2.1574828 *  3.1844607    3.3126123    2.1779064 *  1.0934864 *
  13 H       2.1316128 *  3.0977107    2.9765231 *  2.1710179 *  1.0949049 *
  14 BR      2.8134399 *  1.9070025 *  2.8666579 *  3.6079420    3.7975087  
  15 BR      5.2893522    3.9661912    4.2765560    5.5772082    6.2304876  

                6 H          7 H          8 H          9 H         10 H     

   1 C       1.0838402 *  2.0709161 *  3.2490977    2.8300579 *  2.9167234 *
   2 C       2.1655520 *  1.1194440 *  2.2356536 *  2.1780751 *  2.8899589 *
   3 C       3.3434055    2.3070131 *  1.0944538 *  1.0966988 *  2.1625042 *
   4 C       3.4019061    3.4233936    2.1785586 *  2.1786551 *  1.0976184 *
   5 C       2.2617803 *  3.3178297    3.3542287    2.8982481 *  2.1580262 *
   6 H       0.0000000    2.4300147 *  4.2626567    3.7006727    3.9384690  
   7 H       2.4300147 *  0.0000000    2.8665799 *  2.5138658 *  3.9827255  
   8 H       4.2626567    2.8665799 *  0.0000000    1.7739475 *  2.3804875 *
   9 H       3.7006727    2.5138658 *  1.7739475 *  0.0000000    3.0515313  
  10 H       3.9384690    3.9827255    2.3804875 *  3.0515313    0.0000000  
  11 H       4.2461378    4.2601347    2.7113967 *  2.4195701 *  1.7666601 *
  12 H       2.6846190 *  4.1437062    4.1026267    3.9326275    2.3397656 *
  13 H       2.6086210 *  3.7897034    4.0009645    3.0739635    3.0163058  
  14 BR      3.3525609    2.2817713 *  2.8399356 *  3.7306220    3.4937258  
  15 BR      5.8332529    3.6800279    3.6755790    4.6787391    5.5703005  

               11 H         12 H         13 H         14 BR        15 BR    

   1 C       3.2723154    2.1574828 *  2.1316128 *  2.8134399 *  5.2893522  
   2 C       3.3662250    3.1844607    3.0977107    1.9070025 *  3.9661912  
   3 C       2.1867987 *  3.3126123    2.9765231 *  2.8666579 *  4.2765560  
   4 C       1.0945368 *  2.1779064 *  2.1710179 *  3.6079420    5.5772082  
   5 C       2.1850569 *  1.0934864 *  1.0949049 *  3.7975087    6.2304876  
   6 H       4.2461378    2.6846190 *  2.6086210 *  3.3525609    5.8332529  
   7 H       4.2601347    4.1437062    3.7897034    2.2817713 *  3.6800279  
   8 H       2.7113967 *  4.1026267    4.0009645    2.8399356 *  3.6755790  
   9 H       2.4195701 *  3.9326275    3.0739635    3.7306220    4.6787391  
  10 H       1.7666601 *  2.3397656 *  3.0163058    3.4937258    5.5703005  
  11 H       0.0000000    2.7805958 *  2.3766510 *  4.6466524    6.3354024  
  12 H       2.7805958 *  0.0000000    1.7810132 *  4.1756208    6.8635126  
  13 H       2.3766510 *  1.7810132 *  0.0000000    4.7262628    6.9728508  
  14 BR      4.6466524    4.1756208    4.7262628    0.0000000    2.9971632 *
  15 BR      6.3354024    6.8635126    6.9728508    2.9971632 *  0.0000000  

  * ... LESS THAN  3.000


     ATOMIC BASIS SET
     ----------------
 THE CONTRACTED PRIMITIVE FUNCTIONS HAVE BEEN UNNORMALIZED
 THE CONTRACTED BASIS FUNCTIONS ARE NOW NORMALIZED TO UNITY

  SHELL TYPE  PRIMITIVE        EXPONENT          CONTRACTION COEFFICIENT(S)

 C         

      1   S       1            71.6168373    0.154328967295
      1   S       2            13.0450963    0.535328142282
      1   S       3             3.5305122    0.444634542185

      2   L       4             2.9412494   -0.099967229187    0.155916274999
      2   L       5             0.6834831    0.399512826089    0.607683718598
      2   L       6             0.2222899    0.700115468880    0.391957393099

 C         

      3   S       7            71.6168373    0.154328967295
      3   S       8            13.0450963    0.535328142282
      3   S       9             3.5305122    0.444634542185

      4   L      10             2.9412494   -0.099967229187    0.155916274999
      4   L      11             0.6834831    0.399512826089    0.607683718598
      4   L      12             0.2222899    0.700115468880    0.391957393099

 C         

      5   S      13            71.6168373    0.154328967295
      5   S      14            13.0450963    0.535328142282
      5   S      15             3.5305122    0.444634542185

      6   L      16             2.9412494   -0.099967229187    0.155916274999
      6   L      17             0.6834831    0.399512826089    0.607683718598
      6   L      18             0.2222899    0.700115468880    0.391957393099

 C         

      7   S      19            71.6168373    0.154328967295
      7   S      20            13.0450963    0.535328142282
      7   S      21             3.5305122    0.444634542185

      8   L      22             2.9412494   -0.099967229187    0.155916274999
      8   L      23             0.6834831    0.399512826089    0.607683718598
      8   L      24             0.2222899    0.700115468880    0.391957393099

 C         

      9   S      25            71.6168373    0.154328967295
      9   S      26            13.0450963    0.535328142282
      9   S      27             3.5305122    0.444634542185

     10   L      28             2.9412494   -0.099967229187    0.155916274999
     10   L      29             0.6834831    0.399512826089    0.607683718598
     10   L      30             0.2222899    0.700115468880    0.391957393099

 H         

     11   S      31             3.4252509    0.154328967295
     11   S      32             0.6239137    0.535328142282
     11   S      33             0.1688554    0.444634542185

 H         

     12   S      34             3.4252509    0.154328967295
     12   S      35             0.6239137    0.535328142282
     12   S      36             0.1688554    0.444634542185

 H         

     13   S      37             3.4252509    0.154328967295
     13   S      38             0.6239137    0.535328142282
     13   S      39             0.1688554    0.444634542185

 H         

     14   S      40             3.4252509    0.154328967295
     14   S      41             0.6239137    0.535328142282
     14   S      42             0.1688554    0.444634542185

 H         

     15   S      43             3.4252509    0.154328967295
     15   S      44             0.6239137    0.535328142282
     15   S      45             0.1688554    0.444634542185

 H         

     16   S      46             3.4252509    0.154328967295
     16   S      47             0.6239137    0.535328142282
     16   S      48             0.1688554    0.444634542185

 H         

     17   S      49             3.4252509    0.154328967295
     17   S      50             0.6239137    0.535328142282
     17   S      51             0.1688554    0.444634542185

 H         

     18   S      52             3.4252509    0.154328967295
     18   S      53             0.6239137    0.535328142282
     18   S      54             0.1688554    0.444634542185

 BR        

     19   S      55          2629.9974710    0.154328967295
     19   S      56           479.0573224    0.535328142282
     19   S      57           129.6516070    0.444634542185

     20   L      58           219.8350255   -0.099967229187    0.155916274999
     20   L      59            51.0849322    0.399512826089    0.607683718598
     20   L      60            16.6144055    0.700115468880    0.391957393099

     21   L      61            20.6524416   -0.219620369005    0.010587604289
     21   L      62             5.7619788    0.225595433605    0.595167005266
     21   L      63             2.2551994    0.900398426019    0.462001011973

     22   D      64            22.3657496    0.168659606013
     22   D      65             7.0128139    0.584798481745
     22   D      66             2.7316638    0.405677952331

     23   L      67             1.3960375   -0.308844121382   -0.121546859998
     23   L      68             0.5152256    0.019606411652    0.571522760389
     23   L      69             0.2275291    1.131034441567    0.549894947089

 BR        

     24   S      70          2629.9974710    0.154328967295
     24   S      71           479.0573224    0.535328142282
     24   S      72           129.6516070    0.444634542185

     25   L      73           219.8350255   -0.099967229187    0.155916274999
     25   L      74            51.0849322    0.399512826089    0.607683718598
     25   L      75            16.6144055    0.700115468880    0.391957393099

     26   L      76            20.6524416   -0.219620369005    0.010587604289
     26   L      77             5.7619788    0.225595433605    0.595167005266
     26   L      78             2.2551994    0.900398426019    0.462001011973

     27   D      79            22.3657496    0.168659606013
     27   D      80             7.0128139    0.584798481745
     27   D      81             2.7316638    0.405677952331

     28   L      82             1.3960375   -0.308844121382   -0.121546859998
     28   L      83             0.5152256    0.019606411652    0.571522760389
     28   L      84             0.2275291    1.131034441567    0.549894947089

 TOTAL NUMBER OF BASIS SET SHELLS             =   28
 NUMBER OF CARTESIAN GAUSSIAN BASIS FUNCTIONS =   71
 NUMBER OF ELECTRONS                          =  108
 CHARGE OF MOLECULE                           =    0
 SPIN MULTIPLICITY                            =    1
 NUMBER OF OCCUPIED ORBITALS (ALPHA)          =   54
 NUMBER OF OCCUPIED ORBITALS (BETA )          =   54
 TOTAL NUMBER OF ATOMS                        =   15
 THE NUCLEAR REPULSION ENERGY IS      768.6645327630

     $CONTRL OPTIONS
     ---------------
 SCFTYP=RHF          RUNTYP=OPTIMIZE     EXETYP=RUN     
 MPLEVL=       0     CITYP =NONE         CCTYP =NONE         VBTYP =NONE    
 DFTTYP=NONE         TDDFT =NONE    
 MULT  =       1     ICHARG=       0     NZVAR =       1     COORD =UNIQUE  
 PP    =NONE         RELWFN=NONE         LOCAL =NONE         NUMGRD=       F
 ISPHER=      -1     NOSYM =       0     MAXIT =      30     UNITS =ANGS    
 PLTORB=       F     MOLPLT=       F     AIMPAC=       F     FRIEND=        
 NPRINT=       7     IREST =       0     GEOM  =INPUT   
 NORMF =       0     NORMP =       0     ITOL  =      20     ICUT  =       9
 INTTYP=BEST         GRDTYP=BEST         QMTTOL= 1.0E-06

     $SYSTEM OPTIONS
     ---------------
  REPLICATED MEMORY=     1000000 WORDS (ON EVERY NODE).
 DISTRIBUTED MEMDDI=           0 MILLION WORDS IN AGGREGATE,
 MEMDDI DISTRIBUTED OVER   1 PROCESSORS IS           0 WORDS/PROCESSOR.
 TOTAL MEMORY REQUESTED ON EACH PROCESSOR=     1000000 WORDS.
 TIMLIM=      525600.00 MINUTES, OR     365.0 DAYS.
 PARALL= F  BALTYP=  DLB     KDIAG=    0  COREFL= F
 MXSEQ2=     300 MXSEQ3=     150  mem10=         0

          ----------------
          PROPERTIES INPUT
          ----------------

     MOMENTS            FIELD           POTENTIAL          DENSITY
 IEMOM =       1   IEFLD =       0   IEPOT =       0   IEDEN =       0
 WHERE =COMASS     WHERE =NUCLEI     WHERE =NUCLEI     WHERE =NUCLEI  
 OUTPUT=BOTH       OUTPUT=BOTH       OUTPUT=BOTH       OUTPUT=BOTH    
 IEMINT=       0   IEFINT=       0                     IEDINT=       0
                                                       MORB  =       0
          EXTRAPOLATION IN EFFECT
          SOSCF IN EFFECT
 ORBITAL PRINTING OPTION: NPREO=     1    71     2     1

     -------------------------------
     INTEGRAL TRANSFORMATION OPTIONS
     -------------------------------
     NWORD  =            0
     CUTOFF = 1.0E-09     MPTRAN =       0
     DIRTRF =       F     AOINTS =DUP     

          ----------------------
          INTEGRAL INPUT OPTIONS
          ----------------------
 NOPK  =       1 NORDER=       0 SCHWRZ=       T


 -----------------------------------------------
  STATISTICS ON AUTOMATIC COORDINATE GENERATION 
 -----------------------------------------------
  NUMBER OF USER SPECIFIED BONDS                             2
  NUMBER OF BONDS                                           16
  NUMBER OF ANGLES                                          32
  NUMBER OF TORSIONS                                        42
  NUMBER OF EXTRA COORD.                                     0
  NUMBER OF EXTRA COORD. FOR CONSTRAINTS                     0
  NUMBER OF CONSTRAINED COORD.                               2

  TOTAL NUMBER OF PRIMITIVES                                90
 -----------------------------------------------

   --- ENCODED Z MATRIX ---
 COORD  TYPE   I   J   K   L   M   N
    1      1    2  14
    2      1   14  15
    3      1    1   6
    4      1    1   5
    5      1    1   2
    6      1    2  14
    7      1    2   7
    8      1    2   3
    9      1    3   4
   10      1    3   9
   11      1    3   8
   12      1    4  11
   13      1    4  10
   14      1    4   5
   15      1    5  13
   16      1    5  12
   17      2    1   2   3
   18      2    1   5  12
   19      2    1   2  14
   20      2    1   5  13
   21      2    1   2  14
   22      2    1   5   4
   23      2    1   2   7
   24      2    2  14  15
   25      2    2   1   5
   26      2    2   3   8
   27      2    2   3   9
   28      2    2   3   4
   29      2    2  14  15
   30      2    2   1   6
   31      2    3   4  10
   32      2    3   2  14
   33      2    3   4  11
   34      2    3   2  14
   35      2    3   4   5
   36      2    3   2   7
   37      2    4   5  13
   38      2    4   5  12
   39      2    4   3   8
   40      2    4   3   9
   41      2    5   4  10
   42      2    5   4  11
   43      2    5   1   6
   44      2    7   2  14
   45      2    7   2  14
   46      2    8   3   9
   47      2   10   4  11
   48      2   12   5  13
   49      3    1   2   3   4
   50      3    1   2   3   8
   51      3    1   2  14  15
   52      3    1   5   4  11
   53      3    1   2   3   9
   54      3    1   5   4   3
   55      3    1   5   4  10
   56      3    2   1   5  12
   57      3    2   1   5  13
   58      3    2   3   4   5
   59      3    2   3   4  10
   60      3    2   3   4  11
   61      3    2   1   5   4
   62      3    3   2  14  15
   63      3    3   2   1   6
   64      3    3   4   5  12
   65      3    3   4   5  13
   66      3    3   2   1   5
   67      3    4   3   2   7
   68      3    4   3   2  14
   69      3    4   5   1   6
   70      3    5   1   2   7
   71      3    5   1   2  14
   72      3    5   4   3   8
   73      3    5   4   3   9
   74      3    6   1   5  12
   75      3    6   1   5  13
   76      3    6   1   2   7
   77      3    6   1   2  14
   78      3    7   2  14  15
   79      3    7   2   3   9
   80      3    7   2   3   8
   81      3    8   3   4  10
   82      3    8   3   2  14
   83      3    8   3   4  11
   84      3    9   3   4  11
   85      3    9   3   4  10
   86      3    9   3   2  14
   87      3   10   4   5  12
   88      3   10   4   5  13
   89      3   11   4   5  12
   90      3   11   4   5  13

          INDEP./SYM. INTERNAL COORDINATES
          --------------------------------
 CRD  1=   1.0000 (  1)
 CRD  2=   1.0000 (  2)
 CRD  3=  -0.2884 (  4) -0.3263 (  5)  0.2483 ( 17) -0.1086 ( 18) -0.2588 ( 19)
          -0.2588 ( 21) -0.2835 ( 24)  0.1677 ( 26) -0.2991 ( 28) -0.2835 ( 29)
           0.1697 ( 40)  0.1223 ( 43) -0.1047 ( 46)  0.1323 ( 51) -0.1012 ( 57)
          -0.1719 ( 68)  0.1175 ( 70) -0.1024 ( 86)
 CRD  4=  -0.3101 (  5)  0.1400 (  8) -0.1298 (  9) -0.1030 ( 11)  0.1040 ( 12)
          -0.1115 ( 15) -0.1003 ( 16) -0.1534 ( 20)  0.3434 ( 22) -0.1341 ( 25)
          -0.1704 ( 27)  0.2666 ( 28)  0.1369 ( 32)  0.1425 ( 33)  0.1369 ( 34)
          -0.3822 ( 35) -0.1586 ( 37) -0.1852 ( 39)  0.1640 ( 41)  0.1162 ( 42)
           0.1335 ( 43)  0.1050 ( 46) -0.1303 ( 47)  0.1457 ( 48) -0.1193 ( 51)
          -0.1079 ( 68) -0.1232 ( 78)
 CRD  5=   0.3160 (  4) -0.2894 (  5) -0.3090 (  8)  0.1699 (  9)  0.3160 ( 14)
           0.1122 ( 16) -0.2055 ( 22)  0.1292 ( 25) -0.1455 ( 26)  0.1059 ( 28)
          -0.4521 ( 30)  0.1112 ( 38)  0.3207 ( 43) -0.1116 ( 48)
 CRD  6=  -0.2742 (  4)  0.1875 (  9)  0.1226 ( 12)  0.1142 ( 13)  0.4785 ( 14)
           0.1091 ( 17) -0.1483 ( 18) -0.1973 ( 20)  0.1265 ( 22) -0.1366 ( 23)
           0.1270 ( 24)  0.1270 ( 29)  0.1683 ( 30)  0.1315 ( 31) -0.1397 ( 32)
          -0.1397 ( 34) -0.2075 ( 35)  0.1841 ( 37)  0.1099 ( 39)  0.2191 ( 42)
          -0.1566 ( 43) -0.1152 ( 47)  0.1539 ( 56)  0.1025 ( 61) -0.1231 ( 65)
           0.1371 ( 74) -0.1047 ( 75)
 CRD  7=   0.1331 (  3)  0.2662 (  4)  0.3053 (  5)  0.1339 (  7)  0.2475 (  8)
           0.1489 (  9)  0.1382 ( 11)  0.1219 ( 12)  0.3348 ( 14)  0.1735 ( 16)
          -0.1262 ( 19) -0.1262 ( 21)  0.1727 ( 23) -0.1466 ( 24)  0.1204 ( 26)
          -0.1184 ( 27) -0.1466 ( 29)  0.1584 ( 32)  0.1584 ( 34) -0.1371 ( 36)
          -0.1332 ( 51)  0.1035 ( 52)  0.1213 ( 53)  0.1422 ( 54) -0.1240 ( 57)
          -0.1270 ( 58) -0.1568 ( 59) -0.1043 ( 61) -0.1531 ( 62) -0.1133 ( 71)
          -0.1020 ( 75) -0.1204 ( 77)
 CRD  8=  -0.1609 (  3) -0.1541 (  4) -0.1532 (  8)  0.5681 (  9) -0.1895 ( 14)
           0.1338 ( 25) -0.1588 ( 27)  0.2698 ( 33)  0.1072 ( 39)  0.1860 ( 40)
          -0.1752 ( 42) -0.1895 ( 43) -0.1186 ( 51) -0.1107 ( 52) -0.1167 ( 60)
           0.1044 ( 63)  0.1129 ( 66)  0.1326 ( 73) -0.1422 ( 83)  0.1459 ( 85)
           0.1025 ( 86)
 CRD  9=   0.1591 (  3)  0.2839 (  4)  0.1284 (  7)  0.3175 (  8)  0.3127 (  9)
           0.1119 ( 10)  0.1031 ( 11) -0.1659 ( 14)  0.1165 ( 22) -0.1036 ( 25)
           0.1523 ( 27) -0.1120 ( 28) -0.1358 ( 30)  0.2035 ( 31)  0.1069 ( 36)
          -0.2594 ( 38)  0.1329 ( 39) -0.2262 ( 41)  0.2422 ( 43)  0.1265 ( 59)
           0.1030 ( 61) -0.1233 ( 63) -0.1064 ( 64)  0.1058 ( 69) -0.1288 ( 73)
          -0.1546 ( 78)  0.1361 ( 88) -0.1281 ( 89)
 CRD 10=   0.2130 (  3)  0.1667 (  4)  0.1473 (  5)  0.3141 (  8)  0.1673 ( 14)
          -0.2219 ( 18)  0.1347 ( 19)  0.2321 ( 20)  0.1347 ( 21) -0.1240 ( 23)
          -0.1608 ( 31)  0.1407 ( 33)  0.1207 ( 36) -0.2262 ( 37)  0.1792 ( 38)
          -0.1026 ( 39)  0.2125 ( 41) -0.1268 ( 42) -0.1662 ( 49) -0.1579 ( 52)
          -0.1721 ( 55)  0.1232 ( 58)  0.1190 ( 65)  0.1194 ( 66)  0.1754 ( 70)
           0.1383 ( 71)  0.1484 ( 72)  0.1126 ( 74)  0.1085 ( 75)  0.1338 ( 76)
 CRD 11=  -0.4130 (  3) -0.1743 (  5)  0.1765 (  7)  0.2743 (  8) -0.2095 ( 17)
          -0.1541 ( 22)  0.2907 ( 25)  0.1592 ( 27) -0.1337 ( 30)  0.1156 ( 32)
           0.1156 ( 34)  0.1808 ( 36)  0.1205 ( 38) -0.1508 ( 40) -0.1563 ( 43)
          -0.2990 ( 51) -0.1372 ( 62) -0.3388 ( 78) -0.1212 ( 86)
 CRD 12=  -0.3523 (  7)  0.2707 ( 11) -0.1715 ( 12) -0.1252 ( 15)  0.1348 ( 16)
           0.1063 ( 17) -0.1520 ( 23)  0.1330 ( 26) -0.1331 ( 28) -0.1607 ( 37)
           0.1234 ( 38)  0.1588 ( 39) -0.1249 ( 42)  0.1120 ( 43) -0.1672 ( 50)
           0.1188 ( 52) -0.1338 ( 53)  0.1202 ( 55)  0.1476 ( 56)  0.1768 ( 57)
          -0.1336 ( 59) -0.1772 ( 60) -0.2489 ( 62)  0.1282 ( 63) -0.1280 ( 64)
          -0.1072 ( 65)  0.1832 ( 67)  0.1840 ( 68) -0.1449 ( 69) -0.1050 ( 70)
          -0.1623 ( 71)  0.1299 ( 72)  0.1094 ( 73) -0.1759 ( 78)
 CRD 13=   0.1295 (  5)  0.4047 ( 10) -0.2519 ( 11) -0.1112 ( 12)  0.1844 ( 13)
          -0.1115 ( 15)  0.1310 ( 16)  0.1342 ( 23) -0.1197 ( 26)  0.1468 ( 27)
           0.2001 ( 31)  0.1411 ( 32) -0.1958 ( 33)  0.1411 ( 34) -0.1741 ( 36)
          -0.1282 ( 37)  0.1226 ( 38) -0.1046 ( 41)  0.1449 ( 42) -0.1198 ( 49)
           0.1537 ( 56)  0.1537 ( 57)  0.1389 ( 58)  0.1729 ( 59)  0.1899 ( 60)
           0.1276 ( 63) -0.1242 ( 64) -0.1208 ( 65) -0.1526 ( 67) -0.1224 ( 68)
           0.1046 ( 74)  0.1045 ( 75)  0.1462 ( 78) -0.1070 ( 80)
 CRD 14=   0.1440 (  7) -0.3685 ( 12)  0.4918 ( 13)  0.1784 ( 15)  0.1779 ( 18)
          -0.1298 ( 20)  0.1984 ( 26) -0.1371 ( 27)  0.1862 ( 37) -0.1716 ( 38)
          -0.1496 ( 39)  0.1370 ( 40)  0.1427 ( 41) -0.1142 ( 42) -0.1028 ( 54)
          -0.1014 ( 59) -0.2087 ( 64) -0.1858 ( 65)  0.2390 ( 72)  0.2068 ( 73)
 CRD 15=  -0.3317 (  7)  0.4201 ( 15) -0.3654 ( 16) -0.1258 ( 26)  0.1436 ( 32)
           0.1326 ( 33)  0.1436 ( 34) -0.1265 ( 36) -0.1050 ( 38)  0.1241 ( 39)
           0.1025 ( 41) -0.1105 ( 42) -0.1075 ( 50) -0.1929 ( 52) -0.1045 ( 54)
          -0.1791 ( 55)  0.1010 ( 61) -0.1208 ( 62) -0.1582 ( 70) -0.2227 ( 71)
          -0.1473 ( 76) -0.2118 ( 77) -0.1133 ( 80)
 CRD 16=  -0.4631 (  7)  0.3283 ( 10) -0.2201 ( 11)  0.1062 ( 12) -0.1717 ( 39)
           0.2033 ( 40) -0.1401 ( 44) -0.1401 ( 45)  0.1344 ( 50)  0.1548 ( 53)
          -0.1286 ( 56) -0.1373 ( 57) -0.1217 ( 62)  0.1242 ( 70) -0.1407 ( 78)
           0.1596 ( 79)  0.1392 ( 80)  0.2598 ( 82)  0.2803 ( 86)
 CRD 17=  -0.1167 (  3)  0.1329 (  7) -0.1500 ( 10)  0.2708 ( 15) -0.1792 ( 16)
          -0.1906 ( 18)  0.1730 ( 20)  0.1400 ( 26) -0.1329 ( 27)  0.1092 ( 31)
          -0.1015 ( 33) -0.1401 ( 37)  0.1200 ( 38)  0.1348 ( 40) -0.1181 ( 41)
           0.1066 ( 42)  0.1524 ( 50)  0.1797 ( 53)  0.1830 ( 56)  0.2036 ( 57)
           0.1281 ( 61) -0.1201 ( 63)  0.1028 ( 64) -0.1383 ( 66)  0.1055 ( 69)
          -0.1326 ( 70) -0.1278 ( 71)  0.1603 ( 74)  0.1809 ( 75) -0.1144 ( 76)
          -0.1096 ( 77)  0.1522 ( 81)  0.1423 ( 83)  0.1421 ( 84)  0.1519 ( 85)
           0.1199 ( 86)  0.1729 ( 87)  0.1595 ( 88)  0.1644 ( 89)  0.1511 ( 90)
 CRD 18=   0.1235 ( 13) -0.5835 ( 15) -0.6419 ( 16)  0.1118 ( 38) -0.2516 ( 48)
           0.1365 ( 56)  0.1294 ( 74) -0.1030 ( 75)  0.1217 ( 90)
 CRD 19=   0.4563 ( 10)  0.4658 ( 11) -0.4142 ( 12) -0.4311 ( 13)  0.1746 ( 46)
          -0.1561 ( 47) -0.1296 ( 81)  0.1501 ( 84)
 CRD 20=   0.1026 (  9) -0.3502 ( 10) -0.4625 ( 11) -0.4955 ( 12) -0.3942 ( 13)
          -0.1644 ( 46) -0.1732 ( 47)  0.1224 ( 83) -0.1487 ( 85)
 CRD 21=   0.1161 (  3) -0.1361 (  7) -0.2752 ( 10)  0.2304 ( 11)  0.1612 ( 15)
          -0.1441 ( 16)  0.1315 ( 31) -0.1234 ( 33) -0.1214 ( 41)  0.1298 ( 42)
          -0.1076 ( 49) -0.1645 ( 50)  0.1258 ( 52) -0.1669 ( 53)  0.1324 ( 55)
          -0.1780 ( 56) -0.1776 ( 57)  0.1334 ( 59)  0.1336 ( 60) -0.1233 ( 61)
           0.1291 ( 63)  0.1460 ( 66)  0.1200 ( 70)  0.1216 ( 71)  0.1044 ( 72)
          -0.1537 ( 74) -0.1533 ( 75)  0.1031 ( 76)  0.1047 ( 77)  0.1861 ( 81)
          -0.1346 ( 82)  0.1863 ( 83)  0.1801 ( 84)  0.1799 ( 85) -0.1370 ( 86)
           0.1535 ( 87)  0.1639 ( 88)  0.1469 ( 89)  0.1573 ( 90)
 CRD 22=  -0.1127 ( 10)  0.1002 ( 11)  0.3008 ( 12) -0.3281 ( 13) -0.1027 ( 15)
           0.1055 ( 26) -0.1678 ( 52) -0.1199 ( 54) -0.1516 ( 55)  0.1109 ( 58)
           0.1337 ( 59)  0.1489 ( 60) -0.2051 ( 64) -0.1797 ( 65)  0.1964 ( 72)
           0.1606 ( 73)  0.2192 ( 81)  0.2344 ( 83)  0.1986 ( 84)  0.1834 ( 85)
          -0.2369 ( 87) -0.2114 ( 88) -0.2531 ( 89) -0.2277 ( 90)
 CRD 23=  -0.3058 (  7) -0.2313 ( 10)  0.1822 ( 11) -0.1180 ( 12)  0.1439 ( 13)
          -0.1745 ( 15)  0.1867 ( 16) -0.1252 ( 19) -0.1252 ( 21)  0.1156 ( 23)
           0.2138 ( 36) -0.2459 ( 44) -0.2459 ( 45)  0.1160 ( 50) -0.1628 ( 63)
          -0.2559 ( 67)  0.1649 ( 69)  0.2743 ( 70)  0.1575 ( 74)  0.1434 ( 75)
           0.1951 ( 76) -0.1122 ( 77) -0.2436 ( 79) -0.1989 ( 80)
 CRD 24=   0.2107 (  3)  0.2821 (  4) -0.2537 (  5) -0.2455 (  7) -0.1344 ( 11)
           0.1003 ( 15) -0.1088 ( 19) -0.1088 ( 21) -0.1573 ( 23)  0.3083 ( 30)
          -0.3729 ( 43)  0.1750 ( 44)  0.1750 ( 45) -0.1701 ( 48)  0.1086 ( 56)
           0.1087 ( 62)  0.1848 ( 67)  0.1301 ( 74)  0.1082 ( 79)  0.2150 ( 80)
          -0.1607 ( 86)  0.1182 ( 88)
 CRD 25=   0.6900 (  3) -0.1940 (  4)  0.2627 (  7) -0.1568 (  8) -0.1233 ( 14)
           0.1113 ( 25) -0.1548 ( 30)  0.1235 ( 36)  0.1195 ( 37)  0.1315 ( 38)
           0.1004 ( 47) -0.1790 ( 78)  0.1471 ( 85) -0.1236 ( 88)
 CRD 26=  -0.1184 (  3) -0.1609 (  4)  0.3524 (  5) -0.1346 (  8)  0.1320 (  9)
           0.1616 ( 10) -0.1887 ( 11)  0.2317 ( 12) -0.2372 ( 13)  0.1832 ( 15)
          -0.2661 ( 16) -0.1546 ( 19) -0.1546 ( 21)  0.1145 ( 26) -0.1316 ( 30)
           0.1872 ( 36)  0.1230 ( 43)  0.1278 ( 52)  0.1297 ( 55)  0.1597 ( 57)
          -0.1565 ( 59) -0.1378 ( 60)  0.1269 ( 62)  0.1543 ( 70)  0.2214 ( 76)
          -0.1187 ( 82) -0.1843 ( 86)
 CRD 27=  -0.4224 (  5)  0.2649 (  7)  0.1340 ( 10)  0.1417 ( 12) -0.1572 ( 13)
           0.2320 ( 15) -0.1377 ( 16)  0.1430 ( 17)  0.1211 ( 18)  0.1336 ( 24)
           0.1336 ( 29)  0.1785 ( 30) -0.1548 ( 43) -0.1481 ( 44) -0.1481 ( 45)
          -0.1225 ( 46) -0.1171 ( 62)  0.1310 ( 63) -0.1329 ( 64) -0.2007 ( 67)
           0.1846 ( 76) -0.1466 ( 79) -0.2719 ( 80)  0.1337 ( 86)
 CRD 28=  -0.2277 (  4) -0.1522 (  8) -0.1389 (  9) -0.1199 ( 11)  0.1312 ( 12)
           0.1935 ( 14)  0.1505 ( 16)  0.1117 ( 20)  0.1318 ( 26)  0.2204 ( 31)
           0.2104 ( 33) -0.1519 ( 39) -0.1425 ( 40) -0.1146 ( 41) -0.1693 ( 42)
           0.1120 ( 46) -0.1379 ( 47) -0.1348 ( 48) -0.1706 ( 52) -0.1958 ( 53)
           0.1900 ( 55) -0.1662 ( 62)  0.1177 ( 65) -0.2302 ( 79)  0.1911 ( 82)
           0.1548 ( 87)  0.3188 ( 88) -0.2058 ( 89)
 CRD 29=   0.2418 (  3) -0.1018 (  5) -0.2342 (  8)  0.2689 (  9)  0.1560 ( 11)
           0.1308 ( 12) -0.1812 ( 14)  0.1443 ( 25)  0.1528 ( 26)  0.2351 ( 27)
          -0.1413 ( 39)  0.1858 ( 41)  0.1425 ( 42) -0.1084 ( 46) -0.1529 ( 47)
           0.1186 ( 50) -0.1310 ( 51) -0.1467 ( 59)  0.1502 ( 60)  0.1201 ( 72)
          -0.1830 ( 73)  0.1254 ( 75)  0.1265 ( 82)  0.2400 ( 83) -0.3600 ( 85)
 CRD 30=  -0.1809 (  4)  0.1908 (  7) -0.1177 (  8)  0.2130 ( 14) -0.1316 ( 15)
           0.1913 ( 18)  0.2318 ( 20) -0.1844 ( 23) -0.1129 ( 26)  0.1398 ( 30)
           0.1029 ( 36) -0.1946 ( 37) -0.2484 ( 38)  0.1123 ( 39)  0.1130 ( 42)
          -0.1599 ( 43) -0.2395 ( 56)  0.1530 ( 57)  0.1320 ( 60)  0.1241 ( 65)
          -0.1272 ( 71) -0.1815 ( 74)  0.2110 ( 75) -0.1541 ( 77) -0.1730 ( 78)
           0.1140 ( 79) -0.1522 ( 81)  0.1969 ( 84)  0.1153 ( 88)  0.1250 ( 90)
 CRD 31=   0.1472 (  3) -0.2963 (  4) -0.1229 (  7)  0.1998 (  8) -0.2107 (  9)
           0.1593 ( 11) -0.2023 ( 17)  0.1169 ( 20)  0.1275 ( 23)  0.1082 ( 24)
           0.1991 ( 25)  0.1082 ( 29) -0.2017 ( 30)  0.1033 ( 33) -0.1764 ( 46)
          -0.1173 ( 47) -0.1193 ( 52)  0.2194 ( 53)  0.2835 ( 62) -0.1159 ( 66)
          -0.1026 ( 69) -0.1054 ( 70) -0.1058 ( 74) -0.1110 ( 75)  0.1065 ( 77)
           0.1835 ( 78)  0.1786 ( 79) -0.1784 ( 82)  0.1653 ( 88) -0.1607 ( 89)
 CRD 32=  -0.1447 (  3)  0.1251 (  7) -0.2278 (  8)  0.2151 ( 10)  0.1170 ( 12)
          -0.2765 ( 14)  0.2450 ( 16) -0.1395 ( 18) -0.1469 ( 23) -0.1639 ( 25)
           0.1888 ( 37)  0.1487 ( 41) -0.1802 ( 46) -0.1237 ( 48) -0.1768 ( 50)
           0.1580 ( 51) -0.2099 ( 57) -0.1163 ( 59)  0.1112 ( 65) -0.1375 ( 71)
           0.2084 ( 72) -0.1726 ( 75) -0.1745 ( 77) -0.1320 ( 82)  0.2004 ( 83)
          -0.1325 ( 85)  0.1293 ( 88)  0.1270 ( 90)
 CRD 33=  -0.1492 (  5)  0.1105 (  9)  0.2009 ( 10) -0.1696 ( 11) -0.1132 ( 12)
           0.2250 ( 14) -0.2727 ( 15) -0.1040 ( 22)  0.1223 ( 24)  0.1295 ( 25)
           0.1836 ( 26)  0.1223 ( 29) -0.1132 ( 38) -0.1564 ( 40) -0.1223 ( 43)
           0.2101 ( 48)  0.1158 ( 49) -0.1073 ( 55) -0.1621 ( 56) -0.1257 ( 60)
           0.2349 ( 64) -0.1227 ( 66)  0.1681 ( 72) -0.2392 ( 74)  0.1090 ( 78)
          -0.1696 ( 79) -0.1182 ( 80)  0.2437 ( 81)  0.1189 ( 83)  0.1231 ( 85)
          -0.1105 ( 86)  0.1136 ( 87)  0.1732 ( 89)
 CRD 34=   0.1498 (  4)  0.1467 (  7) -0.1676 (  8)  0.1933 ( 13) -0.1151 ( 19)
          -0.1151 ( 21) -0.1159 ( 23)  0.1358 ( 27)  0.1627 ( 32)  0.1423 ( 33)
           0.1627 ( 34)  0.1191 ( 38) -0.1249 ( 41)  0.1052 ( 50)  0.1923 ( 51)
          -0.1652 ( 52)  0.1101 ( 60)  0.2559 ( 63) -0.2501 ( 69) -0.1933 ( 71)
          -0.1590 ( 73) -0.1576 ( 74) -0.1552 ( 75)  0.2736 ( 76)  0.1708 ( 80)
           0.1224 ( 82) -0.1300 ( 89) -0.2577 ( 90)
 CRD 35=   0.1634 (  4) -0.1660 (  8) -0.2219 (  9)  0.2058 ( 11) -0.1129 ( 13)
           0.2230 ( 14) -0.1446 ( 16) -0.1285 ( 22)  0.1256 ( 28)  0.1715 ( 31)
           0.1061 ( 40) -0.1780 ( 42) -0.1800 ( 46)  0.1704 ( 48) -0.1354 ( 49)
          -0.1185 ( 50)  0.1440 ( 55) -0.1137 ( 56)  0.1137 ( 58)  0.1156 ( 59)
          -0.1795 ( 65)  0.1166 ( 69)  0.1074 ( 72)  0.2125 ( 75) -0.1245 ( 77)
           0.1775 ( 79)  0.1093 ( 81) -0.2921 ( 84)  0.1348 ( 86)  0.2067 ( 87)
          -0.1360 ( 90)
 CRD 36=   0.1908 (  4)  0.1009 (  8) -0.2708 (  9) -0.1019 ( 11)  0.1818 ( 12)
           0.1451 ( 13) -0.1392 ( 14) -0.1388 ( 22) -0.1200 ( 27)  0.2406 ( 35)
           0.1467 ( 39) -0.2557 ( 47)  0.1222 ( 48) -0.1286 ( 51) -0.1530 ( 52)
           0.1667 ( 55) -0.1903 ( 59)  0.1154 ( 60)  0.1134 ( 64) -0.1423 ( 65)
           0.1511 ( 73) -0.2188 ( 81)  0.2792 ( 84)  0.2864 ( 87) -0.2890 ( 90)
 CRD 37=  -0.1388 (  5)  0.2850 (  8)  0.2072 (  9) -0.1483 ( 10)  0.1701 ( 12)
          -0.1026 ( 13)  0.1204 ( 25) -0.1406 ( 28)  0.1203 ( 31)  0.1670 ( 32)
           0.1670 ( 34)  0.1391 ( 46)  0.3305 ( 51) -0.1190 ( 53) -0.1137 ( 54)
           0.1121 ( 58)  0.2338 ( 62) -0.1459 ( 65) -0.1386 ( 71)  0.1565 ( 73)
          -0.1778 ( 77)  0.2467 ( 78)  0.1592 ( 80) -0.1942 ( 81)  0.1784 ( 82)
          -0.1501 ( 83)  0.1662 ( 87)  0.1142 ( 89)
 CRD 38=  -0.1009 ( 10) -0.1434 ( 13) -0.1476 ( 15)  0.1193 ( 16) -0.1258 ( 18)
           0.1348 ( 20) -0.1025 ( 33)  0.1091 ( 37) -0.1127 ( 38)  0.1397 ( 40)
           0.1118 ( 41) -0.1014 ( 42)  0.1081 ( 50) -0.2017 ( 51)  0.1022 ( 53)
          -0.2386 ( 54) -0.1180 ( 55)  0.1865 ( 58)  0.2252 ( 61) -0.1750 ( 62)
           0.1716 ( 63) -0.1096 ( 66) -0.1200 ( 67) -0.1616 ( 68) -0.1114 ( 70)
          -0.2602 ( 74) -0.2223 ( 75)  0.1698 ( 76)  0.2271 ( 77) -0.1449 ( 78)
          -0.1262 ( 81) -0.1683 ( 83)  0.1035 ( 87)  0.1790 ( 89)  0.1517 ( 90)
 CRD 39=   0.1648 ( 19)  0.1648 ( 21) -0.5148 ( 24) -0.5148 ( 29) -0.1266 ( 32)
          -0.1266 ( 34)  0.1054 ( 36) -0.1259 ( 44) -0.1259 ( 45)  0.1039 ( 49)
           0.1089 ( 51)  0.1285 ( 56)  0.1223 ( 57)  0.1650 ( 61)  0.1035 ( 62)
          -0.1778 ( 66)  0.2220 ( 68) -0.1132 ( 71)  0.1589 ( 76)  0.1248 ( 82)
           0.1450 ( 86)

 THE DETERMINANT OF THE G MATRIX IS 10**(   -17)


                     --------------------
                     INTERNAL COORDINATES
                     --------------------

                 - - ATOMS - -         COORDINATE      COORDINATE
 NO.   TYPE    I  J  K  L  M  N        (BOHR,RAD)       (ANG,DEG)
 ----------------------------------------------------------------
   1 STRETCH   2 14                     3.6037122       1.9070025
   2 STRETCH  14 15                     5.6638172       2.9971632
   3 STRETCH   1  6                     2.0481610       1.0838402
   4 STRETCH   1  5                     2.8241269       1.4944637
   5 STRETCH   1  2                     2.5957189       1.3735954
   6 STRETCH   2 14                     3.6037122       1.9070025
   7 STRETCH   2  7                     2.1154425       1.1194440
   8 STRETCH   2  3                     2.9462827       1.5591058
   9 STRETCH   3  4                     2.8819147       1.5250437
  10 STRETCH   3  9                     2.0724602       1.0966988
  11 STRETCH   3  8                     2.0682179       1.0944538
  12 STRETCH   4 11                     2.0683747       1.0945368
  13 STRETCH   4 10                     2.0741981       1.0976184
  14 STRETCH   4  5                     2.8751370       1.5214571
  15 STRETCH   5 13                     2.0690702       1.0949049
  16 STRETCH   5 12                     2.0663898       1.0934864
  17 BEND      1  2  3                  1.8284291     104.7612712
  18 BEND      1  5 12                  1.9551818     112.0236626
  19 BEND      1  2 14                  2.0449531     117.1671841
  20 BEND      1  5 13                  1.9173409     109.8555386
  21 BEND      1  2 14                  2.0449531     117.1671841
  22 BEND      1  5  4                  1.7991255     103.0822962
  23 BEND      1  2  7                  1.9536245     111.9344387
  24 BEND      2 14 15                  1.8464254     105.7923833
  25 BEND      2  1  5                  1.9955004     114.3337494
  26 BEND      2  3  8                  1.9837240     113.6590150
  27 BEND      2  3  9                  1.9015103     108.9485150
  28 BEND      2  3  4                  1.8022001     103.2584569
  29 BEND      2 14 15                  1.8464254     105.7923833
  30 BEND      2  1  6                  2.1493482     123.1485781
  31 BEND      3  4 10                  1.9201400     110.0159176
  32 BEND      3  2 14                  1.9407846     111.1987646
  33 BEND      3  4 11                  1.9572642     112.1429790
  34 BEND      3  2 14                  1.9407846     111.1987646
  35 BEND      3  4  5                  1.8348367     105.1284013
  36 BEND      3  2  7                  2.0593512     117.9921299
  37 BEND      4  5 13                  1.9391472     111.1049503
  38 BEND      4  5 12                  1.9503228     111.7452657
  39 BEND      4  3  8                  1.9457469     111.4830877
  40 BEND      4  3  9                  1.9434970     111.3541772
  41 BEND      5  4 10                  1.9183160     109.9114089
  42 BEND      5  4 11                  1.9592978     112.2594964
  43 BEND      5  1  6                  2.1259691     121.8090580
  44 BEND      7  2 14                  1.6450329      94.2534447
  45 BEND      7  2 14                  1.6450329      94.2534447
  46 BEND      8  3  9                  1.8869248     108.1128294
  47 BEND     10  4 11                  1.8743899     107.3946291
  48 BEND     12  5 13                  1.9014801     108.9467839
  49 TORSION   1  2  3  4              -0.4828504     -27.6652928
  50 TORSION   1  2  3  8              -2.5935031    -148.5967807
  51 TORSION   1  2 14 15              -2.9693836    -170.1331485
  52 TORSION   1  5  4 11              -2.5158364    -144.1468070
  53 TORSION   1  2  3  9               1.5845388      90.7873867
  54 TORSION   1  5  4  3              -0.3834324     -21.9690570
  55 TORSION   1  5  4 10               1.6823737      96.3929114
  56 TORSION   2  1  5 12               2.1759108     124.6705040
  57 TORSION   2  1  5 13              -1.9914295    -114.1005049
  58 TORSION   2  3  4  5               0.5304237      30.3910374
  59 TORSION   2  3  4 10              -1.5341532     -87.9005047
  60 TORSION   2  3  4 11               2.6641448     152.6442549
  61 TORSION   2  1  5  4               0.0765530       4.3861618
  62 TORSION   3  2 14 15               1.2122096      69.4544956
  63 TORSION   3  2  1  6              -2.7192052    -155.7989818
  64 TORSION   3  4  5 12              -2.4861196    -142.4441589
  65 TORSION   3  4  5 13               1.6692636      95.6417589
  66 TORSION   3  2  1  5               0.2565239      14.6977384
  67 TORSION   4  3  2  7              -2.6693426    -152.9420677
  68 TORSION   4  3  2 14               1.7422864      99.8256566
  69 TORSION   4  5  1  6               3.0547546     175.0245435
  70 TORSION   5  1  2  7               2.5080393     143.7000665
  71 TORSION   5  1  2 14              -1.9032850    -109.0501995
  72 TORSION   5  4  3  8               2.6666726     152.7890858
  73 TORSION   5  4  3  9              -1.5075021     -86.3735074
  74 TORSION   6  1  5 12              -1.1290729     -64.6911142
  75 TORSION   6  1  5 13               0.9867721      56.5378768
  76 TORSION   6  1  2  7              -0.4676898     -26.7966537
  77 TORSION   6  1  2 14               1.4041711      80.4530803
  78 TORSION   7  2 14 15              -0.9214993     -52.7980191
  79 TORSION   7  2  3  9              -0.6019534     -34.4893883
  80 TORSION   7  2  3  8               1.5031900      86.1264443
  81 TORSION   8  3  4 10               0.6020957      34.4975436
  82 TORSION   8  3  2 14              -0.3683662     -21.1058314
  83 TORSION   8  3  4 11              -1.4827915     -84.9576968
  84 TORSION   9  3  4 11               0.6262191      35.8797100
  85 TORSION   9  3  4 10               2.7111063     155.3349504
  86 TORSION   9  3  2 14              -2.4735097    -141.7216640
  87 TORSION  10  4  5 12              -0.4203135     -24.0821905
  88 TORSION  10  4  5 13              -2.5481157    -145.9962727
  89 TORSION  11  4  5 12               1.6646617      95.3780911
  90 TORSION  11  4  5 13              -0.4631404     -26.5359912

     ------------------------------------------
     THE POINT GROUP IS C1 , NAXIS= 0, ORDER= 1
     ------------------------------------------

     DIMENSIONS OF THE SYMMETRY SUBSPACES ARE
 A   =   71

 ..... DONE SETTING UP THE RUN .....
 STEP CPU TIME =     0.06 TOTAL CPU TIME =          0.1 (      0.0 MIN)
 TOTAL WALL CLOCK TIME=          0.1 SECONDS, CPU UTILIZATION IS    85.71%


          -----------------------------
          STATIONARY POINT LOCATION RUN
          -----------------------------


           ** GEOMETRY CONSTRAINTS ARE BEING APPLIED. **

          TRANSFORMING DISPLACEMENT FROM INTERNALS TO CARTESIANS
          THE ROOT MEAN SQUARE ERROR IN ITERATION   1 IS   0.00000046
          THE ROOT MEAN SQUARE ERROR IN ITERATION   2 IS   0.00000000
 WARNING! THE RADIUS IN CARTESIANS IS    0.01737
 OBTAINING INITIAL HESSIAN, HESS=CALC    

     ---------------------------------
     HESSIAN MATRIX CONTROL PARAMETERS
     ---------------------------------
     METHOD=ANALYTIC   NVIB  =       2   VIBSIZ= 0.01000
     RDHESS=       F   PURIFY=       F   PRTIFC=       F
     VIBANL=       F   DECOMP=       F   PROJCT=       F
     SCLFAC= 1.00000   PRTSCN=       F   NPRT  =       0
     PULCOR=       F   NPUN  =       0   REDOVB=       T
     HSSTYP=GENERAL 
 Old integral subroutine is used

     ------------------------------
     CPHF RESPONSE SOLUTION OPTIONS
     ------------------------------
     POLAR  =       F     NWORD  =       0
     CPHF   =AO      

          ********************
          1 ELECTRON INTEGRALS
          ********************
 ...... END OF ONE-ELECTRON INTEGRALS ......
 STEP CPU TIME =     0.06 TOTAL CPU TIME =          0.1 (      0.0 MIN)
 TOTAL WALL CLOCK TIME=          0.1 SECONDS, CPU UTILIZATION IS    85.71%

          -------------
          GUESS OPTIONS
          -------------
          GUESS =HUCKEL            NORB  =       0          NORDER=       0
          MIX   =       F          PRTMO =       F          PUNMO =       F
          TOLZ  = 1.0E-08          TOLE  = 1.0E-05
          SYMDEN=       F          PURIFY=       F

 INITIAL GUESS ORBITALS GENERATED BY HUCKEL   ROUTINE.
 HUCKEL GUESS REQUIRES     66792 WORDS.

 SYMMETRIES FOR INITIAL GUESS ORBITALS FOLLOW.   BOTH SET(S).
    54 ORBITALS ARE OCCUPIED (   33 CORE ORBITALS).
    34=A       35=A       36=A       37=A       38=A       39=A       40=A   
    41=A       42=A       43=A       44=A       45=A       46=A       47=A   
    48=A       49=A       50=A       51=A       52=A       53=A       54=A   
    55=A       56=A       57=A       58=A       59=A       60=A       61=A   
    62=A       63=A       64=A   
 ...... END OF INITIAL ORBITAL SELECTION ......
 STEP CPU TIME =     0.02 TOTAL CPU TIME =          0.1 (      0.0 MIN)
 TOTAL WALL CLOCK TIME=          0.2 SECONDS, CPU UTILIZATION IS    82.35%

                    ----------------------
                    AO INTEGRAL TECHNOLOGY
                    ----------------------
     S,P,L SHELL ROTATED AXIS INTEGRALS, REPROGRAMMED BY
        KAZUYA ISHIMURA (IMS) AND JOSE SIERRA (SYNSTAR).
     S,P,D,L SHELL ROTATED AXIS INTEGRALS PROGRAMMED BY
        KAZUYA ISHIMURA (INSTITUTE FOR MOLECULAR SCIENCE).
     S,P,D,F,G SHELL TO TOTAL QUARTET ANGULAR MOMENTUM SUM 5,
        ERIC PROGRAM BY GRAHAM FLETCHER (ELORET AND NASA ADVANCED
        SUPERCOMPUTING DIVISION, AMES RESEARCH CENTER).
     S,P,D,F,G,L SHELL GENERAL RYS QUADRATURE PROGRAMMED BY
        MICHEL DUPUIS (PACIFIC NORTHWEST NATIONAL LABORATORY).

          --------------------
          2 ELECTRON INTEGRALS
          --------------------

 THE -PK- OPTION IS OFF, THE INTEGRALS ARE NOT IN SUPERMATRIX FORM.
 STORING   15000 INTEGRALS/RECORD ON DISK, USING 12 BYTES/INTEGRAL.
 TWO ELECTRON INTEGRAL EVALUATION REQUIRES   90802 WORDS OF MEMORY.
 SCHWARZ INEQUALITY OVERHEAD:      2209 INTEGRALS, T=        0.00
 II,JST,KST,LST =  1  1  1  1 NREC =         1 INTLOC =    1
 II,JST,KST,LST =  2  1  1  1 NREC =         1 INTLOC =    2
 II,JST,KST,LST =  3  1  1  1 NREC =         1 INTLOC =   34
 II,JST,KST,LST =  4  1  1  1 NREC =         1 INTLOC =  144
 II,JST,KST,LST =  5  1  1  1 NREC =         1 INTLOC = 1366
 II,JST,KST,LST =  6  1  1  1 NREC =         1 INTLOC = 1941
 II,JST,KST,LST =  7  1  1  1 NREC =         1 INTLOC = 6830
 II,JST,KST,LST =  8  1  1  1 NREC =         1 INTLOC = 8524
 II,JST,KST,LST =  9  1  1  1 NREC =         2 INTLOC = 5973
 II,JST,KST,LST = 10  1  1  1 NREC =         2 INTLOC = 9861
 II,JST,KST,LST = 11  1  1  1 NREC =         4 INTLOC = 5320
 II,JST,KST,LST = 12  1  1  1 NREC =         4 INTLOC =13917
 II,JST,KST,LST = 13  1  1  1 NREC =         5 INTLOC = 8557
 II,JST,KST,LST = 14  1  1  1 NREC =         6 INTLOC = 4333
 II,JST,KST,LST = 15  1  1  1 NREC =         7 INTLOC = 1342
 II,JST,KST,LST = 16  1  1  1 NREC =         7 INTLOC =14642
 II,JST,KST,LST = 17  1  1  1 NREC =         8 INTLOC =14319
 II,JST,KST,LST = 18  1  1  1 NREC =        10 INTLOC =  466
 II,JST,KST,LST = 19  1  1  1 NREC =        11 INTLOC = 3211
 II,JST,KST,LST = 20  1  1  1 NREC =        12 INTLOC =  682
 II,JST,KST,LST = 21  1  1  1 NREC =        16 INTLOC = 4026
 II,JST,KST,LST = 22  1  1  1 NREC =        22 INTLOC =11454
 II,JST,KST,LST = 23  1  1  1 NREC =        36 INTLOC = 2887
 II,JST,KST,LST = 24  1  1  1 NREC =        50 INTLOC =10506
 II,JST,KST,LST = 25  1  1  1 NREC =        51 INTLOC = 1962
 II,JST,KST,LST = 26  1  1  1 NREC =        53 INTLOC =13399
 II,JST,KST,LST = 27  1  1  1 NREC =        59 INTLOC = 7721
 II,JST,KST,LST = 28  1  1  1 NREC =        70 INTLOC =12174
 SCHWARZ INEQUALITY TEST SKIPPED       38295 INTEGRAL BLOCKS.
 TOTAL NUMBER OF NONZERO TWO-ELECTRON INTEGRALS =             1370693
         92 INTEGRAL RECORDS WERE STORED ON DISK FILE  8.
  ...... END OF TWO-ELECTRON INTEGRALS .....
 STEP CPU TIME =     0.22 TOTAL CPU TIME =          0.4 (      0.0 MIN)
 TOTAL WALL CLOCK TIME=          0.4 SECONDS, CPU UTILIZATION IS    87.80%

          --------------------------
                 RHF SCF CALCULATION
          --------------------------

     NUCLEAR ENERGY =       768.0958704674
     MAXIT =   30     NPUNCH=    2
     EXTRAP=T  DAMP=F  SHIFT=F  RSTRCT=F  DIIS=F  DEM=F  SOSCF=T
     DENSITY MATRIX CONV=  1.00E-05
     SOSCF WILL OPTIMIZE     918 ORBITAL ROTATIONS, SOGTOL=   0.250
     MEMORY REQUIRED FOR RHF ITERS=     69953 WORDS.

 ITER EX DEM     TOTAL ENERGY        E CHANGE  DENSITY CHANGE     ORB. GRAD
   1  0  0    -5282.4680546822 -5282.4680546822  12.159513181   0.000000000
          ---------------START SECOND ORDER SCF---------------
   2  1  0    -5283.3421833376    -0.8741286554   0.945800014   0.084001963
   3  2  0    -5283.2827008231     0.0594825145   0.597662402   0.102312755
   4  3  0    -5283.4285894474    -0.1458886243   0.156162367   0.016703329
   5  4  0    -5283.4329930719    -0.0044036245   0.041856223   0.013125261
   6  5  0    -5283.4356258286    -0.0026327567   0.057045249   0.003965222
   7  6  0    -5283.4367151223    -0.0010892937   0.023227813   0.001782452
   8  7  0    -5283.4368585355    -0.0001434132   0.007310376   0.000838573
   9  8  0    -5283.4368830766    -0.0000245411   0.001970473   0.000327410
  10  9  0    -5283.4368861129    -0.0000030363   0.002918898   0.000260524
  11 10  0    -5283.4368881348    -0.0000020219   0.002651934   0.000153826
  12 11  0    -5283.4368890952    -0.0000009604   0.001114532   0.000074777
  13 12  0    -5283.4368893348    -0.0000002396   0.000251089   0.000027029
  14 13  0    -5283.4368893809    -0.0000000460   0.000069441   0.000013661
  15 14  0    -5283.4368893879    -0.0000000070   0.000031503   0.000005959
  16 15  0    -5283.4368893890    -0.0000000011   0.000013280   0.000002471
  17 16  0    -5283.4368893892    -0.0000000002   0.000008607   0.000001122
  18 17  0    -5283.4368893892    -0.0000000001   0.000004541   0.000000466

          -----------------
          DENSITY CONVERGED
          -----------------
     TIME TO FORM FOCK OPERATORS=       0.4 SECONDS (       0.0 SEC/ITER)
     TIME TO SOLVE SCF EQUATIONS=       0.1 SECONDS (       0.0 SEC/ITER)

 FINAL RHF ENERGY IS    -5283.4368893892 AFTER  18 ITERATIONS

          ------------
          EIGENVECTORS
          ------------

                      1          2          3          4          5
                 -484.8658  -484.6315   -63.7751   -63.5471   -57.9064
                     A          A          A          A          A   
    1  C  1  S    0.000000   0.000000   0.000032   0.000002  -0.000003
    2  C  1  S   -0.000000   0.000000  -0.000029   0.000000  -0.000008
    3  C  1  X    0.000000  -0.000000   0.000015  -0.000007  -0.000002
    4  C  1  Y   -0.000000   0.000000  -0.000007   0.000004  -0.000008
    5  C  1  Z    0.000000   0.000000  -0.000006   0.000016   0.000004
    6  C  2  S    0.000003  -0.000000   0.000454  -0.000010  -0.000048
    7  C  2  S   -0.000018   0.000000  -0.003105   0.000066   0.000363
    8  C  2  X   -0.000004   0.000000  -0.000663   0.000040   0.000079
    9  C  2  Y   -0.000005   0.000000  -0.000851   0.000069   0.000063
   10  C  2  Z    0.000016  -0.000000   0.002868  -0.000007  -0.000316
   11  C  3  S    0.000000  -0.000000   0.000007  -0.000006  -0.000001
   12  C  3  S    0.000001   0.000000   0.000191   0.000045  -0.000011
   13  C  3  X   -0.000000  -0.000000  -0.000051  -0.000022  -0.000001
   14  C  3  Y    0.000001   0.000000   0.000117   0.000023  -0.000006
   15  C  3  Z    0.000000  -0.000000   0.000033  -0.000026   0.000005
   16  C  4  S   -0.000000   0.000000  -0.000010   0.000001   0.000001
   17  C  4  S    0.000000  -0.000000   0.000071  -0.000006  -0.000005
   18  C  4  X    0.000000  -0.000000  -0.000004  -0.000001  -0.000000
   19  C  4  Y    0.000000  -0.000000   0.000007  -0.000004  -0.000000
   20  C  4  Z   -0.000000   0.000000  -0.000051   0.000001   0.000002
   21  C  5  S   -0.000000  -0.000000  -0.000004  -0.000000   0.000000
   22  C  5  S    0.000000   0.000000   0.000021   0.000001  -0.000002
   23  C  5  X    0.000000  -0.000000   0.000013  -0.000000  -0.000002
   24  C  5  Y   -0.000000   0.000000  -0.000002   0.000001   0.000001
   25  C  5  Z   -0.000000  -0.000000  -0.000030  -0.000002   0.000003
   26  H  6  S   -0.000000   0.000000  -0.000020   0.000002   0.000001
   27  H  7  S   -0.000001  -0.000000  -0.000332  -0.000070   0.000003
   28  H  8  S   -0.000002  -0.000001  -0.000404  -0.000092   0.000015
   29  H  9  S   -0.000001  -0.000000  -0.000077  -0.000001   0.000005
   30  H 10  S   -0.000001   0.000000  -0.000113   0.000002   0.000007
   31  H 11  S    0.000000   0.000000  -0.000000   0.000001  -0.000000
   32  H 12  S   -0.000000  -0.000000  -0.000017  -0.000001   0.000002
   33  H 13  S    0.000000   0.000000   0.000001   0.000000  -0.000000
   34  BR14  S    0.994693   0.000001   0.419604   0.000983   0.000469
   35  BR14  S    0.014823  -0.000000  -1.059853  -0.002464  -0.001195
   36  BR14  X   -0.000002  -0.000000   0.000299  -0.000007  -0.253140
   37  BR14  Y   -0.000002  -0.000000   0.000541  -0.000047  -0.556984
   38  BR14  Z    0.000004  -0.000000  -0.000749  -0.000006   0.781951
   39  BR14  S   -0.073391  -0.000013   2.442935   0.004663   0.002537
   40  BR14  X    0.000001   0.000000   0.000108   0.000029  -0.004769
   41  BR14  Y    0.000001   0.000001   0.000117   0.000184  -0.010483
   42  BR14  Z   -0.000003   0.000000  -0.000382   0.000016   0.014735
   43  BR14 XX    0.032041   0.000006  -1.127482  -0.002112  -0.001172
   44  BR14 YY    0.032041   0.000006  -1.127505  -0.002119  -0.001150
   45  BR14 ZZ    0.032041   0.000006  -1.127489  -0.002112  -0.001124
   46  BR14 XY    0.000000  -0.000000  -0.000008  -0.000001   0.000016
   47  BR14 XZ   -0.000000   0.000000   0.000006   0.000000  -0.000023
   48  BR14 YZ   -0.000000  -0.000000   0.000022  -0.000000  -0.000046
   49  BR14  S    0.000096  -0.000003   0.018996  -0.000519  -0.000147
   50  BR14  X   -0.000003  -0.000001  -0.000471  -0.000125   0.000385
   51  BR14  Y   -0.000003  -0.000005  -0.000459  -0.000807   0.000800
   52  BR14  Z    0.000010  -0.000000   0.001771  -0.000074  -0.001214
   53  BR15  S   -0.000000   0.994691  -0.000931   0.419638   0.000004
   54  BR15  S   -0.000000   0.014825   0.002371  -1.059916  -0.000008
   55  BR15  X    0.000000  -0.000000   0.000008   0.000053  -0.000001
   56  BR15  Y    0.000000  -0.000001   0.000049   0.000344  -0.000010
   57  BR15  Z    0.000000  -0.000000   0.000003   0.000043  -0.000003
   58  BR15  S   -0.000013  -0.073381  -0.006478   2.441610  -0.000037
   59  BR15  X   -0.000000   0.000000  -0.000030   0.000007  -0.000001
   60  BR15  Y   -0.000001   0.000000  -0.000188   0.000046  -0.000011
   61  BR15  Z   -0.000000   0.000000  -0.000010   0.000004  -0.000004
   62  BR15 XX    0.000006   0.032036   0.003030  -1.126843   0.000020
   63  BR15 YY    0.000006   0.032037   0.003023  -1.126894   0.000019
   64  BR15 ZZ    0.000006   0.032036   0.003030  -1.126844   0.000020
   65  BR15 XY   -0.000000   0.000000  -0.000001  -0.000008  -0.000000
   66  BR15 XZ   -0.000000   0.000000  -0.000000  -0.000001  -0.000000
   67  BR15 YZ   -0.000000   0.000000  -0.000000  -0.000010  -0.000000
   68  BR15  S   -0.000003   0.000087  -0.000592   0.017510  -0.000035
   69  BR15  X    0.000001  -0.000000   0.000133  -0.000016   0.000005
   70  BR15  Y    0.000005  -0.000001   0.000824  -0.000098   0.000050
   71  BR15  Z    0.000000  -0.000000   0.000044  -0.000006   0.000016

                      6          7          8          9         10
                  -57.9039   -57.9036   -57.6781   -57.6762   -57.6762
                     A          A          A          A          A   
    1  C  1  S    0.000001   0.000000   0.000000  -0.000000  -0.000000
    2  C  1  S    0.000019  -0.000002   0.000000   0.000001   0.000000
    3  C  1  X   -0.000006  -0.000008  -0.000001   0.000000   0.000000
    4  C  1  Y    0.000020   0.000002   0.000001   0.000001   0.000000
    5  C  1  Z    0.000025  -0.000002   0.000002  -0.000001   0.000000
    6  C  2  S   -0.000012   0.000001  -0.000001   0.000001   0.000000
    7  C  2  S    0.000088  -0.000006   0.000007  -0.000008  -0.000002
    8  C  2  X    0.000009   0.000096   0.000004  -0.000003  -0.000002
    9  C  2  Y    0.000134  -0.000000   0.000008  -0.000000  -0.000000
   10  C  2  Z   -0.000075   0.000003  -0.000002   0.000002  -0.000001
   11  C  3  S    0.000000  -0.000000  -0.000000   0.000000  -0.000000
   12  C  3  S   -0.000021   0.000022   0.000002  -0.000004   0.000003
   13  C  3  X   -0.000001   0.000004  -0.000002   0.000002  -0.000001
   14  C  3  Y   -0.000006  -0.000003   0.000001  -0.000002   0.000002
   15  C  3  Z   -0.000008   0.000019  -0.000002   0.000002  -0.000002
   16  C  4  S    0.000000  -0.000001   0.000000  -0.000000   0.000000
   17  C  4  S    0.000001   0.000005  -0.000000   0.000001  -0.000000
   18  C  4  X   -0.000000  -0.000003  -0.000000   0.000000  -0.000000
   19  C  4  Y   -0.000001   0.000000  -0.000000   0.000000  -0.000000
   20  C  4  Z    0.000002  -0.000004   0.000000  -0.000000   0.000000
   21  C  5  S   -0.000000  -0.000000  -0.000000   0.000000  -0.000000
   22  C  5  S   -0.000001   0.000001   0.000000  -0.000000   0.000000
   23  C  5  X   -0.000000  -0.000000  -0.000000   0.000000   0.000000
   24  C  5  Y   -0.000002   0.000001   0.000000  -0.000000   0.000000
   25  C  5  Z   -0.000002   0.000001  -0.000000   0.000000   0.000000
   26  H  6  S   -0.000001   0.000004   0.000000  -0.000000  -0.000000
   27  H  7  S    0.000019   0.000036  -0.000005   0.000007   0.000003
   28  H  8  S    0.000033  -0.000026  -0.000005   0.000008  -0.000007
   29  H  9  S    0.000004  -0.000010   0.000000   0.000000  -0.000000
   30  H 10  S   -0.000001  -0.000012   0.000000  -0.000000   0.000000
   31  H 11  S   -0.000001  -0.000001   0.000000  -0.000000   0.000000
   32  H 12  S   -0.000001   0.000000  -0.000000  -0.000000   0.000000
   33  H 13  S   -0.000000  -0.000001  -0.000000  -0.000000  -0.000000
   34  BR14  S    0.000020  -0.000020   0.000007  -0.000001  -0.000000
   35  BR14  S   -0.000051   0.000052  -0.000015   0.000002   0.000000
   36  BR14  X   -0.166716   0.945499  -0.000005  -0.000001   0.000005
   37  BR14  Y    0.821931  -0.004206  -0.000033   0.000003  -0.000001
   38  BR14  Z    0.531483   0.303088  -0.000002   0.000005   0.000001
   39  BR14  S    0.000050  -0.000126  -0.000073   0.000008   0.000000
   40  BR14  X   -0.003124   0.017695   0.000003   0.000001  -0.000003
   41  BR14  Y    0.015387  -0.000079   0.000020  -0.000002   0.000000
   42  BR14  Z    0.009961   0.005673   0.000002  -0.000003  -0.000001
   43  BR14 XX   -0.000015   0.000031   0.000038  -0.000004  -0.000000
   44  BR14 YY   -0.000062   0.000060   0.000037  -0.000004  -0.000000
   45  BR14 ZZ    0.000021   0.000084   0.000038  -0.000004  -0.000000
   46  BR14 XY   -0.000009  -0.000028  -0.000000  -0.000000   0.000000
   47  BR14 XZ   -0.000016   0.000038   0.000000  -0.000000   0.000000
   48  BR14 YZ    0.000022  -0.000009  -0.000000   0.000000   0.000000
   49  BR14  S   -0.000058  -0.000009  -0.000067   0.000008   0.000000
   50  BR14  X    0.000233  -0.001239  -0.000015  -0.000002   0.000013
   51  BR14  Y   -0.001071   0.000007  -0.000095   0.000008  -0.000002
   52  BR14  Z   -0.000754  -0.000405  -0.000008   0.000016   0.000004
   53  BR15  S   -0.000006  -0.000001  -0.000155   0.000007  -0.000001
   54  BR15  S    0.000013   0.000003   0.000394  -0.000018   0.000003
   55  BR15  X    0.000003  -0.000002   0.132139  -0.265703   0.947497
   56  BR15  Y    0.000016   0.000004   0.970803  -0.120989  -0.169324
   57  BR15  Z   -0.000000  -0.000001   0.160768   0.948985   0.243699
   58  BR15  S    0.000058   0.000012  -0.000877   0.000040  -0.000007
   59  BR15  X    0.000004  -0.000002   0.002487  -0.004986   0.017780
   60  BR15  Y    0.000018   0.000004   0.018274  -0.002271  -0.003177
   61  BR15  Z   -0.000000  -0.000001   0.003026   0.017808   0.004573
   62  BR15 XX   -0.000031  -0.000006   0.000410  -0.000017  -0.000001
   63  BR15 YY   -0.000030  -0.000006   0.000380  -0.000015   0.000009
   64  BR15 ZZ   -0.000031  -0.000006   0.000410  -0.000022   0.000003
   65  BR15 XY    0.000000  -0.000000  -0.000005   0.000005  -0.000017
   66  BR15 XZ    0.000000  -0.000000  -0.000001  -0.000002  -0.000003
   67  BR15 YZ    0.000000  -0.000000  -0.000005  -0.000017  -0.000004
   68  BR15  S    0.000054   0.000011   0.000002  -0.000001  -0.000000
   69  BR15  X   -0.000017   0.000010  -0.000176   0.000347  -0.001238
   70  BR15  Y   -0.000079  -0.000018  -0.001287   0.000159   0.000221
   71  BR15  Z    0.000002   0.000003  -0.000212  -0.001240  -0.000318

                     11         12         13         14         15
                  -11.1128   -11.0951   -11.0917   -11.0784   -11.0739
                     A          A          A          A          A   
    1  C  1  S    0.011667   0.991846   0.026078   0.003322   0.002376
    2  C  1  S   -0.007365   0.035807  -0.005346   0.000154   0.000151
    3  C  1  X   -0.000403  -0.000480   0.004139   0.000171   0.000163
    4  C  1  Y   -0.004710   0.001697   0.001654  -0.000055  -0.000163
    5  C  1  Z    0.000893   0.000138  -0.000574  -0.000100   0.000087
    6  C  2  S    0.991846  -0.010997   0.000994   0.005225   0.001401
    7  C  2  S    0.037177  -0.007740   0.000085  -0.005334  -0.000044
    8  C  2  X    0.000197   0.000127  -0.000096   0.003718   0.000249
    9  C  2  Y   -0.001910   0.004595   0.000072  -0.001524   0.000098
   10  C  2  Z    0.000500  -0.000800   0.000026  -0.001100   0.000117
   11  C  3  S   -0.004300  -0.003135  -0.003249   0.991529   0.029311
   12  C  3  S   -0.005557  -0.000010  -0.000006   0.037253  -0.004754
   13  C  3  X   -0.003688  -0.000002  -0.000163  -0.000135   0.002653
   14  C  3  Y    0.001357   0.000354   0.000106  -0.000416   0.003288
   15  C  3  Z    0.001024  -0.000167  -0.000119   0.000133   0.000686
   16  C  4  S   -0.001170  -0.001989  -0.006907  -0.028358   0.991486
   17  C  4  S    0.000049   0.000222  -0.006147  -0.006926   0.037361
   18  C  4  X   -0.000184  -0.000154  -0.002370  -0.002497   0.000211
   19  C  4  Y    0.000092  -0.000144   0.003502  -0.003389  -0.000147
   20  C  4  Z    0.000190   0.000133  -0.000719  -0.000712  -0.000141
   21  C  5  S   -0.001255  -0.025145   0.991526   0.003014   0.007935
   22  C  5  S    0.000100  -0.006743   0.037829   0.000379  -0.005646
   23  C  5  X    0.000001  -0.003927   0.000415  -0.000172   0.002530
   24  C  5  Y   -0.000008  -0.001565   0.000430  -0.000018  -0.003417
   25  C  5  Z    0.000035   0.000520  -0.000003  -0.000164   0.000723
   26  H  6  S    0.000115  -0.006715  -0.000070  -0.000106  -0.000148
   27  H  7  S   -0.006595   0.000052  -0.000045   0.000084  -0.000125
   28  H  8  S    0.000146  -0.000127  -0.000097  -0.006839  -0.000082
   29  H  9  S    0.000028  -0.000015   0.000032  -0.006914  -0.000143
   30  H 10  S    0.000007  -0.000007   0.000127   0.000258  -0.006940
   31  H 11  S   -0.000127  -0.000101   0.000174   0.000313  -0.006896
   32  H 12  S   -0.000003   0.000074  -0.006937  -0.000136   0.000076
   33  H 13  S   -0.000021   0.000061  -0.006973   0.000009   0.000024
   34  BR14  S    0.000036   0.000003  -0.000000   0.000002  -0.000001
   35  BR14  S   -0.000122  -0.000005   0.000000  -0.000002   0.000001
   36  BR14  X    0.000038   0.000002  -0.000001   0.000007  -0.000002
   37  BR14  Y    0.000043   0.000011  -0.000000  -0.000000  -0.000001
   38  BR14  Z   -0.000113  -0.000003   0.000000  -0.000005   0.000001
   39  BR14  S   -0.000685  -0.000033   0.000003  -0.000027   0.000009
   40  BR14  X   -0.000127  -0.000007   0.000003  -0.000024   0.000005
   41  BR14  Y   -0.000147  -0.000041   0.000001  -0.000000   0.000002
   42  BR14  Z    0.000381   0.000010  -0.000001   0.000017  -0.000002
   43  BR14 XX    0.000335   0.000029  -0.000002   0.000022  -0.000005
   44  BR14 YY    0.000331   0.000028  -0.000002   0.000021  -0.000005
   45  BR14 ZZ    0.000268   0.000033  -0.000002   0.000025  -0.000005
   46  BR14 XY   -0.000009   0.000001   0.000000   0.000001   0.000000
   47  BR14 XZ    0.000025  -0.000001  -0.000000  -0.000003  -0.000000
   48  BR14 YZ    0.000031  -0.000003  -0.000000  -0.000000  -0.000000
   49  BR14  S   -0.003866  -0.000011   0.000006   0.000002   0.000041
   50  BR14  X    0.001241   0.000008  -0.000017   0.000062  -0.000039
   51  BR14  Y    0.001466   0.000179  -0.000007   0.000004  -0.000018
   52  BR14  Z   -0.003910   0.000068   0.000000   0.000001   0.000020
   53  BR15  S   -0.000001   0.000000  -0.000000  -0.000000   0.000000
   54  BR15  S    0.000002  -0.000001   0.000000   0.000001  -0.000000
   55  BR15  X   -0.000001   0.000000  -0.000000  -0.000001   0.000000
   56  BR15  Y   -0.000003   0.000000   0.000000  -0.000001  -0.000000
   57  BR15  Z    0.000002  -0.000000   0.000000   0.000001  -0.000000
   58  BR15  S    0.000013  -0.000003   0.000000   0.000007  -0.000000
   59  BR15  X    0.000002  -0.000000   0.000000   0.000005  -0.000000
   60  BR15  Y    0.000011  -0.000001  -0.000000   0.000004  -0.000000
   61  BR15  Z   -0.000006   0.000001  -0.000000  -0.000002   0.000000
   62  BR15 XX   -0.000008   0.000002  -0.000000  -0.000004   0.000000
   63  BR15 YY   -0.000008   0.000002  -0.000000  -0.000004   0.000000
   64  BR15 ZZ   -0.000008   0.000002  -0.000000  -0.000004   0.000000
   65  BR15 XY    0.000000  -0.000000  -0.000000   0.000000   0.000000
   66  BR15 XZ   -0.000000   0.000000  -0.000000  -0.000000  -0.000000
   67  BR15 YZ   -0.000000   0.000000   0.000000  -0.000000  -0.000000
   68  BR15  S    0.000045  -0.000009   0.000001   0.000023  -0.000001
   69  BR15  X   -0.000010   0.000003  -0.000000  -0.000026   0.000001
   70  BR15  Y   -0.000064   0.000011  -0.000000  -0.000020   0.000000
   71  BR15  Z    0.000035  -0.000003   0.000000   0.000012  -0.000001

                     16         17         18         19         20
                   -9.2633    -9.0505    -6.9588    -6.9450    -6.9438
                     A          A          A          A          A   
    1  C  1  S    0.000078   0.000003   0.000137  -0.000091  -0.000010
    2  C  1  S   -0.000060  -0.000000   0.000089  -0.000325   0.000056
    3  C  1  X   -0.000007  -0.000008  -0.000009   0.000170   0.000149
    4  C  1  Y   -0.000023  -0.000001   0.000151  -0.000407  -0.000042
    5  C  1  Z    0.000068   0.000003   0.000162  -0.000681   0.000056
    6  C  2  S    0.000704  -0.000021   0.001321   0.000246  -0.000043
    7  C  2  S   -0.004163   0.000106  -0.010240  -0.001996   0.000275
    8  C  2  X   -0.000819   0.000054  -0.002050  -0.000146  -0.002526
    9  C  2  Y   -0.001060   0.000090  -0.001726  -0.003434   0.000111
   10  C  2  Z    0.003645  -0.000025   0.008359   0.001463  -0.000229
   11  C  3  S    0.000045  -0.000010   0.000062   0.000024  -0.000041
   12  C  3  S    0.000191   0.000061   0.000220   0.000424  -0.000450
   13  C  3  X   -0.000093  -0.000026  -0.000023  -0.000043  -0.000022
   14  C  3  Y    0.000123   0.000029   0.000112   0.000085   0.000063
   15  C  3  Z    0.000127  -0.000034   0.000077   0.000284  -0.000587
   16  C  4  S   -0.000015   0.000001  -0.000018  -0.000001   0.000016
   17  C  4  S    0.000093  -0.000007   0.000131  -0.000029  -0.000154
   18  C  4  X   -0.000010  -0.000002   0.000003   0.000015   0.000068
   19  C  4  Y    0.000011  -0.000004   0.000016   0.000018  -0.000010
   20  C  4  Z   -0.000063   0.000001  -0.000065  -0.000063   0.000087
   21  C  5  S   -0.000007  -0.000000  -0.000012   0.000004   0.000009
   22  C  5  S    0.000026   0.000001   0.000048   0.000005  -0.000040
   23  C  5  X    0.000012  -0.000000   0.000028   0.000004  -0.000009
   24  C  5  Y   -0.000001   0.000001  -0.000012   0.000030  -0.000043
   25  C  5  Z   -0.000040  -0.000000  -0.000087   0.000062  -0.000027
   26  H  6  S   -0.000027   0.000002  -0.000038   0.000043  -0.000101
   27  H  7  S   -0.000595  -0.000088  -0.000442  -0.000715  -0.001159
   28  H  8  S   -0.000537  -0.000129  -0.000431  -0.000880   0.000760
   29  H  9  S   -0.000093  -0.000001  -0.000149  -0.000074   0.000248
   30  H 10  S   -0.000154   0.000003  -0.000198   0.000059   0.000330
   31  H 11  S   -0.000004   0.000001  -0.000002   0.000016   0.000026
   32  H 12  S   -0.000023  -0.000003  -0.000040   0.000021   0.000002
   33  H 13  S    0.000001   0.000002  -0.000005   0.000009   0.000015
   34  BR14  S    0.170451   0.000150  -0.001474  -0.000055   0.000049
   35  BR14  S   -0.524708  -0.000455   0.004566   0.000172  -0.000150
   36  BR14  X    0.000952  -0.000003   0.106023   0.057372  -0.400198
   37  BR14  Y    0.001690  -0.000024   0.219601  -0.355470   0.007310
   38  BR14  Z   -0.002588  -0.000009  -0.338948  -0.212190  -0.120431
   39  BR14  S    2.305932   0.001666  -0.019053  -0.000409   0.000702
   40  BR14  X   -0.002378   0.000014  -0.270439  -0.146393   1.021247
   41  BR14  Y   -0.004245   0.000109  -0.560181   0.907086  -0.018656
   42  BR14  Z    0.006439   0.000028   0.864564   0.541429   0.307319
   43  BR14 XX   -0.552298  -0.000325   0.002842   0.000201  -0.001611
   44  BR14 YY   -0.551369  -0.000326   0.003853  -0.002336  -0.000054
   45  BR14 ZZ   -0.550293  -0.000325   0.006364   0.002256   0.001148
   46  BR14 XY    0.000488   0.000000   0.000916  -0.000548  -0.001490
   47  BR14 XZ   -0.000821  -0.000000  -0.001508  -0.000833   0.002116
   48  BR14 YZ   -0.001521  -0.000001  -0.002739   0.001285  -0.000500
   49  BR14  S    0.031044  -0.000811   0.004904   0.001378   0.000158
   50  BR14  X   -0.000809  -0.000170  -0.013229  -0.006482   0.042961
   51  BR14  Y   -0.000932  -0.001127  -0.026291   0.038205  -0.000783
   52  BR14  Z    0.002884  -0.000142   0.042782   0.024103   0.013063
   53  BR15  S   -0.000094   0.170502  -0.000047   0.000079   0.000014
   54  BR15  S    0.000296  -0.524859   0.000138  -0.000234  -0.000042
   55  BR15  X    0.000005   0.000155   0.000054  -0.000200   0.000129
   56  BR15  Y    0.000032   0.000948   0.000524  -0.000978  -0.000204
   57  BR15  Z    0.000001   0.000099   0.000185   0.000005   0.000034
   58  BR15  S   -0.001621   2.306145  -0.000306   0.000515   0.000092
   59  BR15  X   -0.000021  -0.000390  -0.000132   0.000491  -0.000315
   60  BR15  Y   -0.000127  -0.002387  -0.001282   0.002398   0.000501
   61  BR15  Z   -0.000004  -0.000249  -0.000452  -0.000011  -0.000083
   62  BR15 XX    0.000460  -0.552007   0.000006  -0.000009  -0.000002
   63  BR15 YY    0.000457  -0.550103   0.000006  -0.000009  -0.000001
   64  BR15 ZZ    0.000460  -0.551982   0.000006  -0.000009  -0.000002
   65  BR15 XY   -0.000001   0.000306   0.000000   0.000000  -0.000000
   66  BR15 XZ   -0.000000   0.000048  -0.000000  -0.000000  -0.000000
   67  BR15 YZ   -0.000000   0.000369  -0.000000  -0.000000  -0.000000
   68  BR15  S   -0.000792   0.029543   0.000998  -0.001690  -0.000302
   69  BR15  X    0.000179  -0.000052  -0.000150   0.000509  -0.000321
   70  BR15  Y    0.001088  -0.000310  -0.001434   0.002463   0.000510
   71  BR15  Z    0.000048  -0.000023  -0.000494  -0.000031  -0.000088

                     21         22         23         24         25
                   -6.7432    -6.7342    -6.7342    -2.3443    -2.3399
                     A          A          A          A          A   
    1  C  1  S   -0.000007   0.000003   0.000000   0.000029  -0.000177
    2  C  1  S   -0.000000  -0.000036  -0.000004   0.001697  -0.000945
    3  C  1  X    0.000017  -0.000006  -0.000001   0.000434   0.000350
    4  C  1  Y   -0.000008  -0.000025  -0.000002   0.000800  -0.000663
    5  C  1  Z   -0.000041   0.000009  -0.000003  -0.001274  -0.001200
    6  C  2  S    0.000036  -0.000028  -0.000006   0.005136   0.002129
    7  C  2  S   -0.000216   0.000210   0.000044  -0.021358  -0.008445
    8  C  2  X   -0.000102   0.000083   0.000058  -0.005433  -0.001837
    9  C  2  Y   -0.000209  -0.000003   0.000009  -0.002491  -0.009630
   10  C  2  Z    0.000079  -0.000058   0.000016   0.019153   0.006673
   11  C  3  S    0.000011  -0.000013   0.000012  -0.000062  -0.000008
   12  C  3  S   -0.000070   0.000108  -0.000092   0.000739   0.001077
   13  C  3  X    0.000040  -0.000047   0.000037   0.000384   0.000550
   14  C  3  Y   -0.000031   0.000045  -0.000056   0.000224   0.000351
   15  C  3  Z    0.000049  -0.000043   0.000041  -0.001340  -0.000125
   16  C  4  S   -0.000001   0.000002  -0.000001  -0.000024   0.000002
   17  C  4  S    0.000011  -0.000015   0.000009   0.000054  -0.000013
   18  C  4  X    0.000003  -0.000004   0.000001   0.000147  -0.000025
   19  C  4  Y    0.000007  -0.000007   0.000004  -0.000034   0.000030
   20  C  4  Z   -0.000003  -0.000000  -0.000001  -0.000073  -0.000047
   21  C  5  S    0.000001  -0.000000   0.000000   0.000000   0.000007
   22  C  5  S   -0.000002   0.000002  -0.000000  -0.000046   0.000038
   23  C  5  X    0.000000  -0.000000   0.000000   0.000024   0.000029
   24  C  5  Y   -0.000002   0.000003  -0.000001  -0.000042  -0.000016
   25  C  5  Z    0.000003   0.000000  -0.000000  -0.000056   0.000084
   26  H  6  S   -0.000004   0.000005   0.000003  -0.000099   0.000040
   27  H  7  S    0.000138  -0.000201  -0.000094   0.002267   0.000508
   28  H  8  S    0.000158  -0.000234   0.000209   0.000202  -0.000543
   29  H  9  S   -0.000003  -0.000005   0.000002  -0.000096  -0.000107
   30  H 10  S   -0.000003   0.000007  -0.000008   0.000031   0.000031
   31  H 11  S   -0.000001   0.000002  -0.000001   0.000056   0.000009
   32  H 12  S    0.000002  -0.000000   0.000000  -0.000019  -0.000004
   33  H 13  S   -0.000000   0.000001  -0.000000   0.000004   0.000003
   34  BR14  S   -0.000093   0.000010   0.000000   0.000250  -0.000070
   35  BR14  S    0.000276  -0.000029  -0.000001  -0.000717   0.000244
   36  BR14  X    0.000243   0.000038  -0.000223   0.000219   0.000109
   37  BR14  Y    0.001551  -0.000136   0.000037   0.000591  -0.001114
   38  BR14  Z    0.000134  -0.000249  -0.000057  -0.000753  -0.000437
   39  BR14  S   -0.000598   0.000060   0.000002   0.004166  -0.000630
   40  BR14  X   -0.000638  -0.000099   0.000586  -0.000525  -0.000262
   41  BR14  Y   -0.004076   0.000357  -0.000099  -0.001497   0.003013
   42  BR14  Z   -0.000353   0.000655   0.000150   0.001805   0.001068
   43  BR14 XX    0.000007  -0.000001  -0.000000   0.372032  -0.080288
   44  BR14 YY    0.000005  -0.000001  -0.000000   0.117370   0.784526
   45  BR14 ZZ    0.000007   0.000002   0.000000  -0.492282  -0.703830
   46  BR14 XY    0.000002  -0.000000   0.000001  -0.235287   0.150321
   47  BR14 XZ   -0.000002  -0.000001   0.000001   0.347604   0.229207
   48  BR14 YZ   -0.000009   0.000001  -0.000000   0.748181  -0.423920
   49  BR14  S    0.002135  -0.000245  -0.000007   0.006230   0.003323
   50  BR14  X    0.000421   0.000066  -0.000372  -0.002469  -0.001204
   51  BR14  Y    0.002705  -0.000235   0.000063  -0.003228  -0.001170
   52  BR14  Z    0.000250  -0.000440  -0.000097   0.008672   0.004100
   53  BR15  S    0.000403  -0.000027   0.000004  -0.000006  -0.000035
   54  BR15  S   -0.001246   0.000083  -0.000013   0.000019   0.000109
   55  BR15  X   -0.055808   0.109025  -0.399623  -0.000008  -0.000023
   56  BR15  Y   -0.408625   0.051068   0.071025  -0.000026  -0.000143
[...]

  1   C            X -0.08821536 -0.02071695 -0.04978493  0.05068993 -0.00424504
                   Y -0.00899733 -0.06054584 -0.01783812  0.12178746 -0.01480996
                   Z -0.02621147 -0.05074946 -0.02192607  0.09696251 -0.01000870
  2   C            X  0.05652299 -0.07272281  0.03826633  0.01422049 -0.00334265
                   Y -0.01361934  0.05255603 -0.02166248 -0.07344172  0.01032277
                   Z -0.00007817  0.07346114 -0.03505353 -0.10705297  0.00935516
  3   C            X -0.04749652  0.14784756  0.01941752  0.05327655  0.00264224
                   Y -0.03428132  0.01192720  0.03593964  0.01839535 -0.00309040
                   Z -0.00209877 -0.00216738  0.03536110  0.04065610 -0.00575097
  4   C            X -0.02420137 -0.05611625 -0.01437334 -0.00953404  0.00888400
                   Y  0.04909073  0.00994943 -0.10112180  0.01464215  0.00154951
                   Z  0.03407663  0.02167696 -0.10272382  0.01196734  0.00936660
  5   C            X  0.14704338  0.07014568  0.04792694  0.01451130 -0.01507561
                   Y -0.02705649 -0.00518008  0.01469349 -0.04332973 -0.06504039
                   Z -0.01861099  0.01028064  0.03450454 -0.03132688 -0.04232174
  6   H            X  0.02108992  0.01970875  0.08598151 -0.22180893  0.00938233
                   Y  0.11441061 -0.03902411  0.13687959 -0.13812983 -0.00728839
                   Z  0.10802811  0.00224506  0.11221006 -0.16023975  0.00004902
  7   H            X -0.04726898  0.12735398 -0.15969673 -0.23513716  0.01841647
                   Y  0.18333301 -0.00033479  0.13616430 -0.04732835 -0.00489866
                   Z  0.09645683 -0.12743926  0.15627026  0.12856689 -0.00902002
  8   H            X  0.01918382 -0.30427192 -0.01567040 -0.24775319  0.00181927
                   Y -0.01646819 -0.07208986  0.02329562 -0.02708067 -0.00710076
                   Z -0.03268559 -0.11222892  0.10801035 -0.05497433  0.01437683
  9   H            X  0.20430487 -0.36112621 -0.20072567 -0.23628478 -0.00276529
                   Y  0.07752312 -0.08409224  0.00459441 -0.04220647  0.01554909
                   Z  0.10094695 -0.13527844 -0.00914234 -0.03232492  0.00445897
 10   H            X -0.03556252 -0.00537363 -0.00885075 -0.06538176 -0.13122969
                   Y -0.22283764  0.01653168  0.35606552 -0.04882657 -0.03592254
                   Z -0.24562936  0.00597985  0.36242844 -0.03722427  0.01822332
 11   H            X -0.03433905 -0.10708316 -0.02789479 -0.04249702 -0.06855617
                   Y  0.08400548 -0.08752836  0.26292356 -0.01550790  0.07006634
                   Z  0.05666204 -0.18040822  0.25157879 -0.09115868 -0.09716810
 12   H            X -0.28917201 -0.12572208 -0.12428104 -0.17501978  0.18663603
                   Y  0.05869111  0.01399432  0.11977428  0.04427147  0.63381233
                   Z  0.01666627  0.02725964  0.05144066 -0.01935609 -0.07747349
 13   H            X -0.36531615 -0.12241354 -0.03219511 -0.15756537  0.11264988
                   Y  0.12251531  0.02748642  0.03457798  0.02329356  0.16464453
                   Z  0.03113501 -0.02735676  0.02692338  0.02553876  0.62241212
 14   BR           X  0.00010386  0.00091579 -0.00012397 -0.00130948  0.00009885
                   Y  0.00018129  0.00189491 -0.00001637 -0.00348057  0.00029304
                   Z  0.00035786 -0.00115252  0.00016937  0.00178924 -0.00014384
 15   BR           X -0.00001050 -0.00009775 -0.00000673  0.00022339 -0.00001898
                   Y -0.00000324 -0.00034475 -0.00001924  0.00090627 -0.00007162
                   Z -0.00007323  0.00015766 -0.00004212 -0.00041332  0.00005177

 TRANS. SAYVETZ    X  0.00000084 -0.00000066  0.00000002  0.00000025  0.00000016
                   Y -0.00000180 -0.00000104  0.00000006  0.00000032  0.00000003
                   Z -0.00000060  0.00000153  0.00000117 -0.00000123  0.00000051
               TOTAL  0.00000207  0.00000196  0.00000117  0.00000130  0.00000053

   ROT. SAYVETZ    X -0.00906572  0.07563686 -0.03277898 -0.09788386  0.00955930
                   Y -0.03478506  0.02894850 -0.01515983  0.01290884  0.00002032
                   Z -0.03697292  0.05512675 -0.02638255 -0.02250690  0.00347918
               TOTAL  0.05156728  0.09796892  0.04472494  0.10126425  0.01017278

                           36          37          38          39          40
       FREQUENCY:      1802.29     1820.38     3573.31     3620.01     3634.31  
        SYMMETRY:         A           A           A           A           A   
    REDUCED MASS:      1.09907     1.12228     1.06637     1.06702     1.06866
    IR INTENSITY:      0.02362     0.05297     0.05942     0.00677     0.00037

  1   C            X  0.00457647  0.00014436 -0.00183760 -0.00044591 -0.00043340
                   Y  0.00579162  0.00143380  0.00094756 -0.00027645  0.00025576
                   Z  0.00534682  0.00154232  0.00081879  0.00001635  0.00015618
  2   C            X -0.00497730  0.00308588 -0.00003552  0.00192518 -0.00155664
                   Y -0.00073483 -0.00229363  0.00079695  0.00141876 -0.00028843
                   Z -0.00483020 -0.00202137 -0.00050287  0.00472679 -0.00188395
  3   C            X  0.02460576 -0.00406334 -0.00000645  0.01933488 -0.00044217
                   Y -0.03123727  0.02021041 -0.00022695 -0.02011859  0.00122172
                   Z -0.06739337  0.03860339 -0.00046016 -0.06450750  0.01080192
  4   C            X -0.03013101 -0.07706167  0.00173031 -0.00835752 -0.06333959
                   Y  0.01672006  0.01989692  0.00207389  0.00289685  0.02240256
                   Z -0.00240568 -0.02249511  0.00140849  0.00041328 -0.02250443
  5   C            X -0.00201429  0.00281425 -0.01875953  0.00058368  0.00115116
                   Y -0.00789073 -0.01792238 -0.06194840  0.00026975 -0.00543542
                   Z -0.00604658 -0.01302910 -0.02810135  0.00028392  0.00184622
  6   H            X -0.01569943 -0.00582081  0.02142166  0.00085491  0.00926503
                   Y -0.01635440 -0.00609046 -0.01420933  0.00084399 -0.00515937
                   Z -0.01155114 -0.00628681 -0.00850512 -0.00048223 -0.00311581
  7   H            X  0.00383026 -0.01364571  0.00579810 -0.04172004  0.02420810
                   Y -0.01280529  0.00392045  0.00065868 -0.00587462  0.00251564
                   Z -0.01660373  0.01633765  0.00741563 -0.04095374  0.02245798
  8   H            X -0.12923148  0.02522391 -0.00125109 -0.12345344  0.01100786
                   Y -0.16375911  0.07780073  0.00891127  0.58606191 -0.06019667
                   Z  0.56760034 -0.27400475  0.00170457  0.08671860 -0.00820269
  9   H            X -0.16866377  0.05830394 -0.00099789 -0.08994473  0.01625042
                   Y  0.53365421 -0.25048635 -0.00317449 -0.36890431  0.05595301
                   Z  0.23189534 -0.11106168  0.00490492  0.63374618 -0.09181168
 10   H            X  0.27596372  0.56010278 -0.00532424  0.01919093  0.15366291
                   Y  0.04749464  0.12468301  0.01379762 -0.05468822 -0.49566096
                   Z -0.07229631 -0.12146465 -0.00911463  0.05833866  0.48333331
 11   H            X  0.13476732  0.26248101 -0.02611851  0.08471559  0.54179766
                   Y -0.20199767 -0.37318242 -0.01105427  0.03636027  0.24506341
                   Z  0.15224848  0.36913199  0.00956694 -0.03678503 -0.23382192
 12   H            X  0.00221147  0.00767005  0.05090755 -0.00085366 -0.00226971
                   Y  0.03678923  0.12938483  0.00914905  0.00027678 -0.00200108
                   Z -0.00804916 -0.01817789  0.58385603 -0.00186842 -0.01252251
 13   H            X  0.00098862 -0.00041700  0.18100658 -0.00088208  0.01384732
                   Y  0.00861113  0.03651767  0.69221322 -0.00465348  0.04289389
                   Z  0.03506230  0.11850541 -0.27411871  0.00133940 -0.01839403
 14   BR           X -0.00012663 -0.00000671 -0.00000807 -0.00004239  0.00002175
                   Y -0.00038390  0.00005797 -0.00004063 -0.00002141  0.00000641
                   Z  0.00025023 -0.00006185  0.00005926  0.00004333 -0.00000026
 15   BR           X  0.00000375  0.00000763  0.00000426  0.00000183 -0.00000057
                   Y  0.00006418 -0.00001279  0.00002216  0.00000635 -0.00000119
                   Z -0.00001240  0.00001156 -0.00001029 -0.00000184  0.00000034

 TRANS. SAYVETZ    X -0.00000056 -0.00000024  0.00000020 -0.00000048  0.00000090
                   Y -0.00000011 -0.00000027 -0.00000044 -0.00000029 -0.00000050
                   Z  0.00000035  0.00000003 -0.00000057 -0.00000006 -0.00000058
               TOTAL  0.00000067  0.00000036  0.00000075  0.00000056  0.00000118

   ROT. SAYVETZ    X -0.00256322 -0.00200246  0.00003374  0.00072874 -0.00025669
                   Y  0.00322722 -0.00115807  0.00002376 -0.00044418  0.00025654
                   Z  0.00223177 -0.00181883  0.00005006 -0.00018016  0.00016555
               TOTAL  0.00468677  0.00294263  0.00006488  0.00087224  0.00039888

                           41          42          43          44          45
       FREQUENCY:      3671.42     3678.85     3717.12     3741.10     3752.17  
        SYMMETRY:         A           A           A           A           A   
    REDUCED MASS:      1.09355     1.10706     1.09929     1.11273     1.11179
    IR INTENSITY:      1.06188     0.09122     7.58459     0.00429     0.00056

  1   C            X  0.01321586 -0.00063560 -0.06782985 -0.00187595  0.00108994
                   Y -0.00494676  0.00121781  0.04425830  0.00112080 -0.00081212
                   Z -0.00257303  0.00107492  0.02580571  0.00077433 -0.00036585
  2   C            X -0.05988400 -0.00349715 -0.01024034 -0.00159574  0.00086942
                   Y -0.00746019 -0.00027629 -0.00527635  0.00002349  0.00019239
                   Z -0.05677086 -0.00401322 -0.01295883 -0.00085089  0.00083276
  3   C            X  0.00329128  0.00009139  0.00050474  0.00704253  0.00105672
                   Y -0.00048483 -0.00036646  0.00141663 -0.08486634 -0.01348154
                   Z -0.00452230  0.00067434 -0.00195695  0.03238056  0.00670991
  4   C            X  0.00179150 -0.00366587  0.00095109  0.00835072 -0.03846410
                   Y -0.00104142 -0.00061744 -0.00168395  0.01035168 -0.05918012
                   Z  0.00115980  0.00130430  0.00141563 -0.00946927  0.05736933
  5   C            X -0.00088861  0.00523757  0.00390279  0.00019399 -0.00001297
                   Y -0.00139023  0.04060302  0.00105016  0.00045265 -0.00130924
                   Z  0.00456219 -0.08019577  0.00380573  0.00097150  0.00090028
  6   H            X -0.14182455  0.01310737  0.75858346  0.01735708 -0.01013130
                   Y  0.08523634 -0.00930210 -0.46717824 -0.01029595  0.00651144
                   Z  0.05279120 -0.00377024 -0.27877562 -0.00579493  0.00432869
  7   H            X  0.67332157  0.04185390  0.12008571  0.01097624 -0.00663446
                   Y  0.06796698  0.00424876  0.01481479  0.00215392 -0.00079872
                   Z  0.64174502  0.03900417  0.11616952  0.01054503 -0.00684626
  8   H            X -0.00627574 -0.00045016  0.00209936 -0.14841488 -0.02182101
                   Y  0.02873286  0.00388681 -0.00966573  0.70167941  0.10872259
                   Z  0.00419597  0.00098225 -0.00081854  0.11085939  0.01694127
  9   H            X -0.00844476  0.00073801 -0.00236641  0.07107434  0.01214003
                   Y -0.02630048  0.00365490 -0.01118484  0.28874418  0.05473151
                   Z  0.04727484 -0.00592163  0.01914763 -0.49876790 -0.10140765
 10   H            X -0.00526215  0.00549895 -0.00536540  0.01724316 -0.14039876
                   Y  0.01710448 -0.01146927  0.01618742 -0.06481051  0.43602358
                   Z -0.01650901  0.00777452 -0.01531081  0.05945401 -0.42679240
 11   H            X -0.00737715  0.03477979  0.00364377 -0.11281971  0.58534628
                   Y -0.00354522  0.01665554  0.00174152 -0.04900063  0.26057536
                   Z  0.00396678 -0.01387795 -0.00133781  0.04853115 -0.24805902
 12   H            X -0.00345557  0.07003876 -0.00572040 -0.00137306  0.00001402
                   Y -0.00188978  0.02793013 -0.00136826  0.00031780 -0.00063769
                   Z -0.04463925  0.74836538 -0.03659482 -0.00669100 -0.01109612
 13   H            X  0.00798018 -0.13564910 -0.00348150 -0.00029613  0.00333230
                   Y  0.02509739 -0.51791449 -0.00529743 -0.00257324  0.02176776
                   Z -0.00901384  0.19295786  0.00190469  0.00074955 -0.00532701
 14   BR           X -0.00003603 -0.00000640 -0.00001296  0.00002565  0.00000555
                   Y -0.00011384 -0.00000693 -0.00013974  0.00002570  0.00001737
                   Z  0.00016279  0.00000913  0.00002218 -0.00002899 -0.00001244
 15   BR           X -0.00000141 -0.00000013 -0.00000894 -0.00000017 -0.00000069
                   Y -0.00001321 -0.00000123 -0.00000740 -0.00000011 -0.00000151
                   Z -0.00000314  0.00000095  0.00002610 -0.00000091 -0.00000035

 TRANS. SAYVETZ    X  0.00000024  0.00000013 -0.00000016 -0.00000015 -0.00000003
                   Y  0.00000027 -0.00000016  0.00000007 -0.00000014  0.00000017
                   Z  0.00000008  0.00000007 -0.00000040 -0.00000004 -0.00000020
               TOTAL  0.00000037  0.00000022  0.00000044  0.00000021  0.00000027

   ROT. SAYVETZ    X -0.00734197 -0.00049527 -0.00202711 -0.00008731  0.00011648
                   Y  0.00939199  0.00056648  0.00168668  0.00021924 -0.00012838
                   Z  0.00650255  0.00037999  0.00091141  0.00017495 -0.00008647
               TOTAL  0.01357929  0.00084296  0.00279012  0.00029376  0.00019371

 REFERENCE ON SAYVETZ CONDITIONS - A. SAYVETZ, J.CHEM.PHYS., 7, 383-389(1939).

 NOTE - THE MODES J,K ARE ORTHONORMALIZED ACCORDING TO
 SUM ON I   M(I) * (X(I,J)*X(I,K) + Y(I,J)*Y(I,K) + Z(I,J)*Z(I,K)) = DELTA(J,K)

  MODE FREQ(CM**-1)  SYMMETRY  RED. MASS  IR INTENS.
     1     150.511    A       13.095066    2.473347
     2      96.124    A        6.020083    0.671424
     3      84.764    A        6.025250    0.056406
     4       0.214    A       15.064991    0.000000
     5       0.372    A       15.054398    0.000000
     6       0.377    A       15.052678    0.000000
     7      16.677    A        4.021471    0.027154
     8      73.652    A       20.855772    0.037465
     9      80.192    A       19.236592    0.054384
    10     107.690    A        4.084377    0.372935
    11     157.710    A        2.160238    0.023331
    12     269.061    A        2.324828    1.176148
    13     348.862    A        2.580768    0.975300
    14     657.440    A        3.334025    1.947705
    15     727.658    A        2.171482    0.030152
    16     827.930    A        1.225777    0.628649
    17     862.489    A        5.430572    0.177310
    18     956.477    A        1.619480    0.069028
    19    1029.269    A        1.570112    0.526189
    20    1061.833    A        3.785255    0.760657
    21    1074.573    A        1.784132    0.116652
    22    1110.696    A        2.014123    0.276139
    23    1222.701    A        1.322007    0.085942
    24    1238.214    A        1.514061    0.472628
    25    1272.208    A        1.316643    0.524763
    26    1335.482    A        1.076388    0.405850
    27    1372.445    A        1.220322    2.471509
    28    1454.391    A        1.236069    0.127508
    29    1464.508    A        1.285232    0.168542
    30    1535.891    A        1.339655    0.188761
    31    1592.635    A        1.880742    2.522127
    32    1600.336    A        2.290000    0.120636
    33    1638.993    A        1.610592    1.299886
    34    1679.854    A        2.372912    6.362979
    35    1779.460    A        1.091979    0.262173
    36    1802.294    A        1.099068    0.023621
    37    1820.378    A        1.122280    0.052970
    38    3573.314    A        1.066371    0.059420
    39    3620.008    A        1.067022    0.006769
    40    3634.314    A        1.068665    0.000372
    41    3671.418    A        1.093548    1.061880
    42    3678.847    A        1.107063    0.091215
    43    3717.122    A        1.099286    7.584588
    44    3741.103    A        1.112731    0.004294
    45    3752.167    A        1.111788    0.000561

     -------------------------------
     THERMOCHEMISTRY AT T=  298.15 K
     -------------------------------

 USING IDEAL GAS, RIGID ROTOR, HARMONIC NORMAL MODE APPROXIMATIONS.
 P=  1.01325E+05 PASCAL.
 ALL FREQUENCIES ARE SCALED BY   1.00000
 THE MOMENTS OF INERTIA ARE (IN AMU*BOHR**2)
            481.02281          4181.51946          4266.22181
 THE ROTATIONAL SYMMETRY NUMBER IS  1.0
 THE ROTATIONAL CONSTANTS ARE (IN GHZ)
      3.74845     0.43120     0.42264
   2 IMAGINARY FREQUENCY VIBRATION(S) IS(ARE) EXCLUDED
     FROM THE FOLLOWING THERMOCHEMICAL ANALYSIS.
      9 -     45 VIBRATIONAL MODES ARE USED IN THERMOCHEMISTRY.
 THE HARMONIC ZERO POINT ENERGY IS (SCALED BY   1.000)
        0.140039 HARTREE/MOLECULE    30734.981770 CM**-1/MOLECULE 
       87.875811 KCAL/MOL              367.672392 KJ/MOL

               Q               LN Q
 ELEC.     1.00000E+00       0.000000
 TRANS.    1.33452E+08      18.709254
 ROT.      1.04861E+06      13.862974
 VIB.      2.84736E+01       3.348976
 TOT.      3.98456E+15      35.921204

              E         H         G         CV        CP        S
           KJ/MOL    KJ/MOL    KJ/MOL   J/MOL-K   J/MOL-K   J/MOL-K
 ELEC.      0.000     0.000     0.000     0.000     0.000     0.000
 TRANS.     3.718     6.197   -46.379    12.472    20.786   176.342
 ROT.       3.718     3.718   -34.365    12.472    12.472   127.734
 VIB.     377.021   377.021   359.370    62.364    62.364    59.200
 TOTAL    384.458   386.937   278.626    87.307    95.622   363.277
 VIB. THERMAL CORRECTION E(T)-E(0) = H(T)-H(0) =      9348.589 J/MOL

              E         H         G         CV        CP        S
         KCAL/MOL  KCAL/MOL  KCAL/MOL CAL/MOL-K CAL/MOL-K CAL/MOL-K
 ELEC.      0.000     0.000     0.000     0.000     0.000     0.000
 TRANS.     0.889     1.481   -11.085     2.981     4.968    42.147
 ROT.       0.889     0.889    -8.214     2.981     2.981    30.529
 VIB.      90.110    90.110    85.892    14.905    14.905    14.149
 TOTAL     91.888    92.480    66.593    20.867    22.854    86.825
 VIB. THERMAL CORRECTION E(T)-E(0) = H(T)-H(0) =      2234.366 CAL/MOL

     *******************************************************
     * THIS IS NOT A STATIONARY POINT ON THE MOLECULAR PES *
     *     THE VIBRATIONAL ANALYSIS IS NOT VALID !!!       *
     *******************************************************
 ......END OF NORMAL COORDINATE ANALYSIS......
 STEP CPU TIME =     0.01 TOTAL CPU TIME =        186.5 (      3.1 MIN)
 TOTAL WALL CLOCK TIME=        187.8 SECONDS, CPU UTILIZATION IS    99.33%
               992079  WORDS OF DYNAMIC MEMORY USED
 EXECUTION OF GAMESS TERMINATED NORMALLY Sun Nov 14 19:17:56 2021
 DDI: 263640 bytes (0.3 MB / 0 MWords) used by master data server.

 ----------------------------------------
 CPU timing information for all processes
 ========================================
 0: 182.682 + 3.864 = 186.546
 ----------------------------------------
 ddikick.x: exited gracefully.
----- accounting info -----
Files used on the master node chemcompute-node-0.novalocal were:
-rw-r--r--. 1 chemcomp chemcomp     1119 Nov 14 19:14 /scratch/306497/342508.F05
-rw-rw-r--. 1 chemcomp chemcomp 15841408 Nov 14 19:17 /scratch/306497/342508.F08
-rw-rw-r--. 1 chemcomp chemcomp 85196800 Nov 14 19:17 /scratch/306497/342508.F10
-rw-rw-r--. 1 chemcomp chemcomp   920520 Nov 14 19:17 /scratch/306497/342508.F18
Sun Nov 14 19:17:59 UTC 2021
0.119u 0.097s 3:11.31 0.1%	0+0k 8+216io 0pf+0w
Finishing Up...
Looking for IR data...
Looking for Raman data...
vibramans not found
Looking for thermodynamics data...
Looking for UV-Vis data...
306497
